       N       E                     dE             d eps       ncg     rms          rms(c)
DAV:   1     0.671036459063E+04    0.67104E+04   -0.31130E+05  2096   0.144E+03
DAV:   2     0.380736135634E+03   -0.63296E+04   -0.57848E+04  2096   0.352E+02
DAV:   3    -0.483647083365E+03   -0.86438E+03   -0.70582E+03  2252   0.157E+02
DAV:   4    -0.556507348816E+03   -0.72860E+02   -0.68632E+02  2392   0.466E+01
DAV:   5    -0.558295553824E+03   -0.17882E+01   -0.17823E+01  2352   0.774E+00    0.100E+02
RMM:   6    -0.691394351704E+03   -0.13310E+03   -0.86199E+02  2098   0.698E+01    0.176E+02
RMM:   7    -0.546053502889E+03    0.14534E+03   -0.24862E+02  2101   0.331E+01    0.108E+02
RMM:   8    -0.729148314716E+03   -0.18309E+03   -0.15660E+02  2099   0.253E+01    0.193E+02
RMM:   9    -0.630860583968E+03    0.98288E+02   -0.97424E+01  2101   0.206E+01    0.165E+02
RMM:  10    -0.505215775455E+03    0.12564E+03   -0.12251E+02  2101   0.239E+01    0.961E+01
RMM:  11    -0.497020898239E+03    0.81949E+01   -0.10220E+02  2108   0.220E+01    0.127E+02
RMM:  12    -0.494939253182E+03    0.20816E+01   -0.83595E+01  2104   0.204E+01    0.113E+02
RMM:  13    -0.454892637747E+03    0.40047E+02   -0.59370E+01  2106   0.172E+01    0.659E+01
RMM:  14    -0.448611830318E+03    0.62808E+01   -0.21569E+01  2104   0.102E+01    0.495E+01
RMM:  15    -0.453904103695E+03   -0.52923E+01   -0.12763E+01  2103   0.744E+00    0.515E+01
RMM:  16    -0.454552621245E+03   -0.64852E+00   -0.10242E+01  2106   0.682E+00    0.398E+01
RMM:  17    -0.460905754824E+03   -0.63531E+01   -0.68653E+00  2101   0.557E+00    0.421E+01
RMM:  18    -0.464447192839E+03   -0.35414E+01   -0.61024E+00  2102   0.505E+00    0.336E+01
RMM:  19    -0.467238224821E+03   -0.27910E+01   -0.49698E+00  2104   0.442E+00    0.245E+01
RMM:  20    -0.476142075157E+03   -0.89039E+01   -0.47381E+00  2102   0.397E+00    0.293E+01
RMM:  21    -0.479720893048E+03   -0.35788E+01   -0.40610E+00  2102   0.387E+00    0.222E+01
RMM:  22    -0.486166363156E+03   -0.64455E+01   -0.46370E+00  2101   0.395E+00    0.261E+01
RMM:  23    -0.488987879590E+03   -0.28215E+01   -0.37900E+00  2100   0.345E+00    0.176E+01
RMM:  24    -0.491131107900E+03   -0.21432E+01   -0.19229E+00  2103   0.252E+00    0.172E+01
RMM:  25    -0.493262491972E+03   -0.21314E+01   -0.17170E+00  2101   0.222E+00    0.155E+01
RMM:  26    -0.494918090055E+03   -0.16556E+01   -0.14145E+00  2101   0.215E+00    0.146E+01
RMM:  27    -0.496566309570E+03   -0.16482E+01   -0.11485E+00  2100   0.178E+00    0.104E+01
RMM:  28    -0.498232834399E+03   -0.16665E+01   -0.11419E+00  2100   0.189E+00    0.132E+01
RMM:  29    -0.499201637946E+03   -0.96880E+00   -0.85624E-01  2101   0.154E+00    0.107E+01
RMM:  30    -0.499904167878E+03   -0.70253E+00   -0.53979E-01  2100   0.129E+00    0.794E+00
RMM:  31    -0.501029242710E+03   -0.11251E+01   -0.57241E-01  2100   0.123E+00    0.961E+00
RMM:  32    -0.501221502898E+03   -0.19226E+00   -0.26862E-01  2100   0.917E-01    0.709E+00
RMM:  33    -0.501540434868E+03   -0.31893E+00   -0.14650E-01  2101   0.689E-01    0.734E+00
RMM:  34    -0.501785758238E+03   -0.24532E+00   -0.13897E-01  2100   0.618E-01    0.525E+00
RMM:  35    -0.502095030567E+03   -0.30927E+00   -0.12378E-01  2099   0.616E-01    0.512E+00
RMM:  36    -0.502497935571E+03   -0.40291E+00   -0.15918E-01  2100   0.621E-01    0.444E+00
RMM:  37    -0.502675137917E+03   -0.17720E+00   -0.65483E-02  2101   0.473E-01    0.385E+00
RMM:  38    -0.502879253885E+03   -0.20412E+00   -0.46288E-02  2099   0.368E-01    0.326E+00
RMM:  39    -0.502937370564E+03   -0.58117E-01   -0.16865E-02  2102   0.250E-01    0.267E+00
RMM:  40    -0.503078280914E+03   -0.14091E+00   -0.24877E-02  2100   0.264E-01    0.272E+00
RMM:  41    -0.503138640210E+03   -0.60359E-01   -0.21439E-02  2100   0.275E-01    0.219E+00
RMM:  42    -0.503173010766E+03   -0.34371E-01   -0.19945E-02  2100   0.257E-01    0.215E+00
RMM:  43    -0.503170062008E+03    0.29488E-02   -0.12396E-02  2101   0.224E-01    0.167E+00
RMM:  44    -0.503176326924E+03   -0.62649E-02   -0.13037E-02  2100   0.211E-01    0.186E+00
RMM:  45    -0.503183296109E+03   -0.69692E-02   -0.95982E-03  2102   0.193E-01    0.153E+00
RMM:  46    -0.503201053729E+03   -0.17758E-01   -0.84243E-03  2100   0.170E-01    0.164E+00
RMM:  47    -0.503220947392E+03   -0.19894E-01   -0.82822E-03  2100   0.165E-01    0.109E+00
RMM:  48    -0.503238556193E+03   -0.17609E-01   -0.87548E-03  2101   0.167E-01    0.125E+00
RMM:  49    -0.503241274219E+03   -0.27180E-02   -0.57225E-03  2101   0.141E-01    0.630E-01
RMM:  50    -0.503252977674E+03   -0.11703E-01   -0.21056E-03  2100   0.862E-02    0.686E-01
RMM:  51    -0.503260637149E+03   -0.76595E-02   -0.22263E-03  2102   0.927E-02    0.691E-01
RMM:  52    -0.503277699105E+03   -0.17062E-01   -0.11754E-03  2100   0.677E-02    0.512E-01
RMM:  53    -0.503294719187E+03   -0.17020E-01   -0.70748E-04  2101   0.516E-02    0.429E-01
RMM:  54    -0.503323623246E+03   -0.28904E-01   -0.66717E-04  2101   0.439E-02    0.338E-01
RMM:  55    -0.503344694276E+03   -0.21071E-01   -0.55070E-04  2100   0.416E-02    0.267E-01
RMM:  56    -0.503383075882E+03   -0.38382E-01   -0.75951E-04  2100   0.468E-02    0.314E-01
RMM:  57    -0.503401951415E+03   -0.18876E-01   -0.35455E-04  2100   0.351E-02    0.180E-01
RMM:  58    -0.503420830767E+03   -0.18879E-01   -0.23230E-04  2101   0.249E-02    0.195E-01
RMM:  59    -0.503447243733E+03   -0.26413E-01   -0.29639E-04  2100   0.245E-02    0.127E-01
RMM:  60    -0.503482803264E+03   -0.35560E-01   -0.42887E-04  2100   0.245E-02    0.141E-01
RMM:  61    -0.503499696953E+03   -0.16894E-01   -0.15917E-04  2100   0.191E-02    0.133E-01
RMM:  62    -0.503517036013E+03   -0.17339E-01   -0.13909E-04  2099   0.173E-02    0.121E-01
RMM:  63    -0.503537910241E+03   -0.20874E-01   -0.22582E-04  2100   0.178E-02    0.991E-02
RMM:  64    -0.503554232446E+03   -0.16322E-01   -0.24496E-04  2100   0.177E-02    0.104E-01
RMM:  65    -0.503569103574E+03   -0.14871E-01   -0.23029E-04  2100   0.166E-02    0.844E-02
RMM:  66    -0.503565972925E+03    0.31306E-02   -0.11343E-04  2096   0.199E-02    0.135E-01
RMM:  67    -0.503582924698E+03   -0.16952E-01   -0.33881E-04  2099   0.195E-02    0.959E-02
RMM:  68    -0.503590134250E+03   -0.72096E-02   -0.17664E-04  2098   0.134E-02    0.593E-02
RMM:  69    -0.503593200280E+03   -0.30660E-02   -0.62305E-05  2096   0.902E-03    0.508E-02
RMM:  70    -0.503596051647E+03   -0.28514E-02   -0.57386E-05  2072   0.861E-03    0.483E-02
RMM:  71    -0.503596682864E+03   -0.63122E-03   -0.21899E-05  2039   0.838E-03    0.546E-02
RMM:  72    -0.503598131564E+03   -0.14487E-02   -0.25812E-05  1956   0.698E-03    0.224E-02
RMM:  73    -0.503598964190E+03   -0.83263E-03   -0.12481E-05  1824   0.456E-03    0.272E-02
RMM:  74    -0.503599230838E+03   -0.26665E-03   -0.75825E-06  1697   0.369E-03    0.137E-02
RMM:  75    -0.503599298127E+03   -0.67289E-04   -0.23530E-06  1413   0.264E-03    0.140E-02
RMM:  76    -0.503599370188E+03   -0.72062E-04   -0.36825E-06  1502   0.272E-03    0.104E-02
RMM:  77    -0.503599385535E+03   -0.15346E-04   -0.12391E-06  1318   0.200E-03    0.850E-03
RMM:  78    -0.503599395883E+03   -0.10348E-04   -0.83709E-07  1257   0.165E-03    0.626E-03
RMM:  79    -0.503599400966E+03   -0.50838E-05   -0.50746E-07  1231   0.127E-03    0.590E-03
RMM:  80    -0.503599405550E+03   -0.45834E-05   -0.58182E-07  1249   0.111E-03    0.466E-03
RMM:  81    -0.503599408243E+03   -0.26936E-05   -0.28922E-07  1201   0.101E-03    0.493E-03
RMM:  82    -0.503599411907E+03   -0.36633E-05   -0.27196E-07  1195   0.869E-04    0.357E-03
RMM:  83    -0.503599415216E+03   -0.33089E-05   -0.21369E-07  1112   0.718E-04    0.276E-03
RMM:  84    -0.503599417567E+03   -0.23513E-05   -0.22311E-07  1112   0.642E-04    0.262E-03
RMM:  85    -0.503599421328E+03   -0.37608E-05   -0.10162E-07  1034   0.563E-04    0.209E-03
RMM:  86    -0.503599423782E+03   -0.24548E-05   -0.67314E-08  1000   0.485E-04    0.239E-03
RMM:  87    -0.503599424638E+03   -0.85568E-06   -0.84521E-08   971   0.462E-04
   1 F= -.53812337E+03 E0= -.53812841E+03  d E =-.538123E+03  mag=    97.2315
       N       E                     dE             d eps       ncg     rms          rms(c)
DAV:   1    -0.502838783031E+03    0.76064E+00   -0.10976E+03  2104   0.390E+01    0.112E+01
RMM:   2    -0.508513512620E+03   -0.56747E+01   -0.27713E+01  2102   0.125E+01    0.291E+01
RMM:   3    -0.508530558097E+03   -0.17045E-01   -0.81576E+00  2282   0.545E+00    0.265E+01
RMM:   4    -0.509145619872E+03   -0.61506E+00   -0.24938E+00  2110   0.307E+00    0.279E+01
RMM:   5    -0.506294329330E+03    0.28513E+01   -0.98748E-01  2103   0.200E+00    0.994E+00
RMM:   6    -0.506199002837E+03    0.95326E-01   -0.70448E-01  2100   0.172E+00    0.936E+00
RMM:   7    -0.506065127227E+03    0.13388E+00   -0.34183E-01  2101   0.119E+00    0.746E+00
RMM:   8    -0.505974210080E+03    0.90917E-01   -0.21165E-01  2101   0.959E-01    0.569E+00
RMM:   9    -0.505955596196E+03    0.18614E-01   -0.17072E-01  2101   0.842E-01    0.513E+00
RMM:  10    -0.505962139498E+03   -0.65433E-02   -0.22921E-01  2101   0.947E-01    0.571E+00
RMM:  11    -0.505952243264E+03    0.98962E-02   -0.18418E-01  2104   0.870E-01    0.568E+00
RMM:  12    -0.505874756324E+03    0.77487E-01   -0.10457E-01  2102   0.659E-01    0.312E+00
RMM:  13    -0.505863865255E+03    0.10891E-01   -0.50169E-02  2100   0.460E-01    0.254E+00
RMM:  14    -0.505850621710E+03    0.13244E-01   -0.21420E-02  2100   0.309E-01    0.145E+00
RMM:  15    -0.505845592911E+03    0.50288E-02   -0.93161E-03  2102   0.205E-01    0.836E-01
RMM:  16    -0.505847565075E+03   -0.19722E-02   -0.35211E-03  2100   0.119E-01    0.777E-01
RMM:  17    -0.505848783460E+03   -0.12184E-02   -0.21261E-03  2102   0.943E-02    0.533E-01
RMM:  18    -0.505851203850E+03   -0.24204E-02   -0.14468E-03  2101   0.768E-02    0.555E-01
RMM:  19    -0.505855050857E+03   -0.38470E-02   -0.11824E-03  2102   0.659E-02    0.317E-01
RMM:  20    -0.505857113662E+03   -0.20628E-02   -0.58889E-04  2102   0.488E-02    0.230E-01
RMM:  21    -0.505861591402E+03   -0.44777E-02   -0.40103E-04  2103   0.372E-02    0.230E-01
RMM:  22    -0.505864167832E+03   -0.25764E-02   -0.25382E-04  2100   0.315E-02    0.145E-01
RMM:  23    -0.505868303295E+03   -0.41355E-02   -0.16793E-04  2100   0.236E-02    0.152E-01
RMM:  24    -0.505871367788E+03   -0.30645E-02   -0.11825E-04  2100   0.206E-02    0.107E-01
RMM:  25    -0.505874639801E+03   -0.32720E-02   -0.89068E-05  2097   0.165E-02    0.116E-01
RMM:  26    -0.505878095059E+03   -0.34553E-02   -0.75121E-05  2098   0.139E-02    0.832E-02
RMM:  27    -0.505881687903E+03   -0.35928E-02   -0.84561E-05  2097   0.141E-02    0.101E-01
RMM:  28    -0.505885097601E+03   -0.34097E-02   -0.83571E-05  2100   0.130E-02    0.725E-02
RMM:  29    -0.505888211711E+03   -0.31141E-02   -0.87546E-05  2098   0.130E-02    0.855E-02
RMM:  30    -0.505891230604E+03   -0.30189E-02   -0.10893E-04  2099   0.133E-02    0.572E-02
RMM:  31    -0.505892936104E+03   -0.17055E-02   -0.64234E-05  2096   0.112E-02    0.646E-02
RMM:  32    -0.505894541960E+03   -0.16059E-02   -0.64223E-05  2096   0.101E-02    0.413E-02
RMM:  33    -0.505895267639E+03   -0.72568E-03   -0.29160E-05  2088   0.801E-03    0.449E-02
RMM:  34    -0.505896130371E+03   -0.86273E-03   -0.40723E-05  2094   0.752E-03    0.300E-02
RMM:  35    -0.505896362771E+03   -0.23240E-03   -0.12658E-05  1897   0.547E-03    0.235E-02
RMM:  36    -0.505896639065E+03   -0.27629E-03   -0.17962E-05  1912   0.478E-03    0.215E-02
RMM:  37    -0.505896691170E+03   -0.52106E-04   -0.52509E-06  1683   0.365E-03    0.142E-02
RMM:  38    -0.505896741120E+03   -0.49950E-04   -0.36325E-06  1482   0.276E-03    0.134E-02
RMM:  39    -0.505896757383E+03   -0.16263E-04   -0.14060E-06  1273   0.248E-03    0.876E-03
RMM:  40    -0.505896790682E+03   -0.33299E-04   -0.10585E-06  1291   0.177E-03    0.949E-03
RMM:  41    -0.505896809659E+03   -0.18977E-04   -0.54978E-07  1219   0.162E-03    0.467E-03
RMM:  42    -0.505896834091E+03   -0.24433E-04   -0.35775E-07  1218   0.103E-03    0.676E-03
RMM:  43    -0.505896858590E+03   -0.24498E-04   -0.31748E-07  1215   0.107E-03    0.407E-03
RMM:  44    -0.505896882913E+03   -0.24323E-04   -0.30528E-07  1217   0.855E-04    0.552E-03
RMM:  45    -0.505896913972E+03   -0.31059E-04   -0.41672E-07  1231   0.976E-04    0.335E-03
RMM:  46    -0.505896939633E+03   -0.25660E-04   -0.38551E-07  1219   0.873E-04    0.474E-03
RMM:  47    -0.505896956781E+03   -0.17149E-04   -0.30104E-07  1208   0.931E-04    0.329E-03
RMM:  48    -0.505896976568E+03   -0.19786E-04   -0.35523E-07  1175   0.746E-04    0.325E-03
RMM:  49    -0.505896990722E+03   -0.14155E-04   -0.26470E-07  1177   0.733E-04    0.261E-03
RMM:  50    -0.505896999366E+03   -0.86433E-05   -0.15906E-07  1078   0.590E-04    0.203E-03
RMM:  51    -0.505897002981E+03   -0.36155E-05   -0.79365E-08  1009   0.493E-04    0.197E-03
RMM:  52    -0.505897005742E+03   -0.27612E-05   -0.81229E-08   885   0.393E-04    0.114E-03
RMM:  53    -0.505897007153E+03   -0.14104E-05   -0.27404E-08   766   0.334E-04    0.722E-04
RMM:  54    -0.505897009076E+03   -0.19234E-05   -0.17891E-08   577   0.293E-04    0.730E-04
RMM:  55    -0.505897009905E+03   -0.82885E-06   -0.70658E-09   423   0.266E-04
   2 F= -.54046025E+03 E0= -.54047064E+03  d E =-.233689E+01  mag=    96.6570
       N       E                     dE             d eps       ncg     rms          rms(c)
DAV:   1    -0.505858152221E+03    0.38857E-01   -0.27430E+01  2144   0.600E+00    0.156E+00
RMM:   2    -0.505999382631E+03   -0.14123E+00   -0.53131E-01  2103   0.169E+00    0.467E+00
RMM:   3    -0.505992329018E+03    0.70536E-02   -0.15034E-01  2318   0.722E-01    0.457E+00
RMM:   4    -0.505997462694E+03   -0.51337E-02   -0.62210E-02  2103   0.492E-01    0.439E+00
RMM:   5    -0.505934602864E+03    0.62860E-01   -0.29756E-02  2101   0.363E-01    0.156E+00
RMM:   6    -0.505927638566E+03    0.69643E-02   -0.97307E-03  2100   0.209E-01    0.775E-01
RMM:   7    -0.505928904322E+03   -0.12658E-02   -0.45128E-03  2102   0.134E-01    0.104E+00
RMM:   8    -0.505925625542E+03    0.32788E-02   -0.37043E-03  2102   0.123E-01    0.589E-01
RMM:   9    -0.505926349411E+03   -0.72387E-03   -0.42556E-03  2102   0.129E-01    0.870E-01
RMM:  10    -0.505925797836E+03    0.55157E-03   -0.47087E-03  2107   0.131E-01    0.824E-01
RMM:  11    -0.505923828143E+03    0.19697E-02   -0.29742E-03  2100   0.112E-01    0.445E-01
RMM:  12    -0.505923219460E+03    0.60868E-03   -0.11113E-03  2101   0.686E-02    0.259E-01
RMM:  13    -0.505923096675E+03    0.12279E-03   -0.34724E-04  2103   0.386E-02    0.187E-01
RMM:  14    -0.505923140300E+03   -0.43625E-04   -0.20294E-04  2100   0.283E-02    0.219E-01
RMM:  15    -0.505923050712E+03    0.89588E-04   -0.11549E-04  2098   0.222E-02    0.775E-02
RMM:  16    -0.505923141996E+03   -0.91284E-04   -0.63485E-05  2099   0.156E-02    0.893E-02
RMM:  17    -0.505923238422E+03   -0.96427E-04   -0.48003E-05  2097   0.134E-02    0.541E-02
RMM:  18    -0.505923365683E+03   -0.12726E-03   -0.31214E-05  2105   0.109E-02    0.637E-02
RMM:  19    -0.505923515430E+03   -0.14975E-03   -0.20602E-05  2096   0.843E-03    0.554E-02
RMM:  20    -0.505923576348E+03   -0.60918E-04   -0.89308E-06  1922   0.600E-03    0.274E-02
RMM:  21    -0.505923706759E+03   -0.13041E-03   -0.55179E-06  1786   0.469E-03    0.321E-02
RMM:  22    -0.505923818621E+03   -0.11186E-03   -0.36449E-06  1633   0.411E-03    0.177E-02
RMM:  23    -0.505923945367E+03   -0.12675E-03   -0.28177E-06  1520   0.328E-03    0.211E-02
RMM:  24    -0.505924131246E+03   -0.18588E-03   -0.31194E-06  1524   0.322E-03    0.130E-02
RMM:  25    -0.505924286816E+03   -0.15557E-03   -0.24698E-06  1428   0.270E-03    0.169E-02
RMM:  26    -0.505924472408E+03   -0.18559E-03   -0.31265E-06  1515   0.289E-03    0.133E-02
RMM:  27    -0.505924667966E+03   -0.19556E-03   -0.37335E-06  1569   0.285E-03    0.167E-02
RMM:  28    -0.505924887576E+03   -0.21961E-03   -0.52104E-06  1647   0.301E-03    0.118E-02
RMM:  29    -0.505925010938E+03   -0.12336E-03   -0.29997E-06  1454   0.249E-03    0.120E-02
RMM:  30    -0.505925115543E+03   -0.10460E-03   -0.29964E-06  1481   0.237E-03    0.830E-03
RMM:  31    -0.505925146967E+03   -0.31424E-04   -0.94996E-07  1289   0.168E-03    0.762E-03
RMM:  32    -0.505925180420E+03   -0.33453E-04   -0.97908E-07  1331   0.145E-03    0.489E-03
RMM:  33    -0.505925188434E+03   -0.80141E-05   -0.32792E-07  1217   0.110E-03    0.419E-03
RMM:  34    -0.505925196875E+03   -0.84412E-05   -0.26371E-07  1215   0.843E-04    0.329E-03
RMM:  35    -0.505925199475E+03   -0.25998E-05   -0.11836E-07  1123   0.694E-04    0.220E-03
RMM:  36    -0.505925202392E+03   -0.29166E-05   -0.86919E-08  1016   0.487E-04    0.242E-03
RMM:  37    -0.505925203491E+03   -0.10995E-05   -0.45211E-08   957   0.460E-04    0.147E-03
RMM:  38    -0.505925205403E+03   -0.19116E-05   -0.35208E-08   871   0.355E-04    0.182E-03
RMM:  39    -0.505925206557E+03   -0.11547E-05   -0.21768E-08   792   0.341E-04    0.111E-03
RMM:  40    -0.505925207900E+03   -0.13422E-05   -0.16642E-08   655   0.300E-04    0.157E-03
RMM:  41    -0.505925209475E+03   -0.15750E-05   -0.21438E-08   687   0.292E-04    0.892E-04
RMM:  42    -0.505925210544E+03   -0.10698E-05   -0.17007E-08   615   0.283E-04    0.111E-03
RMM:  43    -0.505925212218E+03   -0.16731E-05   -0.30104E-08   692   0.288E-04    0.817E-04
RMM:  44    -0.505925212977E+03   -0.75936E-06   -0.15746E-08   585   0.277E-04
   3 F= -.54049904E+03 E0= -.54050957E+03  d E =-.237567E+01  mag=    96.5581
       N       E                     dE             d eps       ncg     rms          rms(c)
DAV:   1    -0.505834132395E+03    0.91080E-01   -0.20164E+02  2096   0.176E+01    0.597E+00
RMM:   2    -0.507006132043E+03   -0.11720E+01   -0.41973E+00  2102   0.500E+00    0.141E+01
RMM:   3    -0.507439788220E+03   -0.43366E+00   -0.17526E+00  2171   0.265E+00    0.170E+01
RMM:   4    -0.507506132510E+03   -0.66344E-01   -0.62774E-01  2101   0.157E+00    0.162E+01
RMM:   5    -0.506587153201E+03    0.91898E+00   -0.32413E-01  2100   0.117E+00    0.588E+00
RMM:   6    -0.506504086603E+03    0.83067E-01   -0.13390E-01  2100   0.746E-01    0.355E+00
RMM:   7    -0.506502906800E+03    0.11798E-02   -0.62576E-02  2100   0.496E-01    0.323E+00
RMM:   8    -0.506477066806E+03    0.25840E-01   -0.28721E-02  2101   0.352E-01    0.171E+00
RMM:   9    -0.506475048157E+03    0.20186E-02   -0.17937E-02  2101   0.277E-01    0.152E+00
RMM:  10    -0.506475296892E+03   -0.24873E-03   -0.20318E-02  2103   0.289E-01    0.170E+00
RMM:  11    -0.506477181644E+03   -0.18848E-02   -0.19655E-02  2103   0.283E-01    0.202E+00
RMM:  12    -0.506466366039E+03    0.10816E-01   -0.14299E-02  2102   0.242E-01    0.110E+00
RMM:  13    -0.506464827722E+03    0.15383E-02   -0.70775E-03  2101   0.172E-01    0.864E-01
RMM:  14    -0.506463891623E+03    0.93610E-03   -0.41906E-03  2101   0.132E-01    0.784E-01
RMM:  15    -0.506461955354E+03    0.19363E-02   -0.19995E-03  2100   0.957E-02    0.329E-01
RMM:  16    -0.506462146272E+03   -0.19092E-03   -0.87220E-04  2100   0.602E-02    0.430E-01
RMM:  17    -0.506461722807E+03    0.42346E-03   -0.48612E-04  2100   0.457E-02    0.208E-01
RMM:  18    -0.506461699202E+03    0.23605E-04   -0.26252E-04  2100   0.338E-02    0.174E-01
RMM:  19    -0.506461706496E+03   -0.72947E-05   -0.15399E-04  2101   0.243E-02    0.130E-01
RMM:  20    -0.506461713311E+03   -0.68145E-05   -0.89507E-05  2100   0.194E-02    0.880E-02
RMM:  21    -0.506461838967E+03   -0.12566E-03   -0.63973E-05  2097   0.157E-02    0.106E-01
RMM:  22    -0.506461886680E+03   -0.47713E-04   -0.39469E-05  2097   0.130E-02    0.556E-02
RMM:  23    -0.506462045189E+03   -0.15851E-03   -0.26652E-05  2096   0.103E-02    0.697E-02
RMM:  24    -0.506462203109E+03   -0.15792E-03   -0.17025E-05  2090   0.832E-03    0.410E-02
RMM:  25    -0.506462389913E+03   -0.18680E-03   -0.12040E-05  1973   0.681E-03    0.482E-02
RMM:  26    -0.506462641995E+03   -0.25208E-03   -0.10618E-05  1989   0.604E-03    0.356E-02
RMM:  27    -0.506462905091E+03   -0.26310E-03   -0.10978E-05  1972   0.612E-03    0.403E-02
RMM:  28    -0.506463345620E+03   -0.44053E-03   -0.15952E-05  2083   0.622E-03    0.284E-02
RMM:  29    -0.506463676724E+03   -0.33110E-03   -0.12396E-05  1939   0.583E-03    0.312E-02
RMM:  30    -0.506464065574E+03   -0.38885E-03   -0.13001E-05  1963   0.535E-03    0.198E-02
RMM:  31    -0.506464330585E+03   -0.26501E-03   -0.77758E-06  1801   0.450E-03    0.244E-02
RMM:  32    -0.506464560840E+03   -0.23025E-03   -0.56393E-06  1657   0.385E-03    0.144E-02
RMM:  33    -0.506464690476E+03   -0.12964E-03   -0.28379E-06  1471   0.305E-03    0.148E-02
RMM:  34    -0.506464859991E+03   -0.16952E-03   -0.28939E-06  1388   0.267E-03    0.868E-03
RMM:  35    -0.506464917222E+03   -0.57231E-04   -0.96634E-07  1239   0.186E-03    0.849E-03
RMM:  36    -0.506464999968E+03   -0.82745E-04   -0.11156E-06  1278   0.164E-03    0.697E-03
RMM:  37    -0.506465033351E+03   -0.33383E-04   -0.48034E-07  1220   0.133E-03    0.503E-03
RMM:  38    -0.506465078197E+03   -0.44846E-04   -0.51033E-07  1239   0.102E-03    0.528E-03
RMM:  39    -0.506465099506E+03   -0.21309E-04   -0.27592E-07  1208   0.967E-04    0.368E-03
RMM:  40    -0.506465128728E+03   -0.29223E-04   -0.36784E-07  1202   0.746E-04    0.386E-03
RMM:  41    -0.506465140119E+03   -0.11391E-04   -0.17477E-07  1135   0.731E-04    0.268E-03
RMM:  42    -0.506465153803E+03   -0.13684E-04   -0.21818E-07  1108   0.604E-04    0.334E-03
RMM:  43    -0.506465163162E+03   -0.93589E-05   -0.20006E-07  1106   0.663E-04    0.188E-03
RMM:  44    -0.506465171248E+03   -0.80861E-05   -0.25913E-07  1146   0.589E-04    0.292E-03
RMM:  45    -0.506465174438E+03   -0.31903E-05   -0.18425E-07  1078   0.628E-04    0.158E-03
RMM:  46    -0.506465177812E+03   -0.33733E-05   -0.11798E-07  1081   0.497E-04    0.202E-03
RMM:  47    -0.506465177041E+03    0.77129E-06   -0.83352E-08  1026   0.492E-04
   4 F= -.54103252E+03 E0= -.54104447E+03  d E =-.533478E+00  mag=    96.7467
       N       E                     dE             d eps       ncg     rms          rms(c)
DAV:   1    -0.506286029192E+03    0.17915E+00   -0.93556E+01  2096   0.119E+01    0.397E+00
RMM:   2    -0.506759545017E+03   -0.47352E+00   -0.17018E+00  2103   0.315E+00    0.848E+00
RMM:   3    -0.506926642940E+03   -0.16710E+00   -0.80577E-01  2161   0.181E+00    0.109E+01
RMM:   4    -0.506759599262E+03    0.16704E+00   -0.30060E-01  2102   0.112E+00    0.717E+00
RMM:   5    -0.506628918075E+03    0.13068E+00   -0.89660E-02  2104   0.609E-01    0.393E+00
RMM:   6    -0.506584985287E+03    0.43933E-01   -0.37044E-02  2103   0.389E-01    0.186E+00
RMM:   7    -0.506583268434E+03    0.17169E-02   -0.19121E-02  2102   0.275E-01    0.186E+00
RMM:   8    -0.506574866927E+03    0.84015E-02   -0.11370E-02  2100   0.221E-01    0.111E+00
RMM:   9    -0.506573623648E+03    0.12433E-02   -0.81022E-03  2104   0.183E-01    0.107E+00
RMM:  10    -0.506573614260E+03    0.93883E-05   -0.90977E-03  2101   0.191E-01    0.116E+00
RMM:  11    -0.506574594971E+03   -0.98071E-03   -0.93768E-03  2105   0.193E-01    0.135E+00
RMM:  12    -0.506569548012E+03    0.50470E-02   -0.60071E-03  2101   0.157E-01    0.643E-01
RMM:  13    -0.506568591468E+03    0.95654E-03   -0.20071E-03  2102   0.922E-02    0.361E-01
RMM:  14    -0.506568629242E+03   -0.37774E-04   -0.95223E-04  2100   0.631E-02    0.416E-01
RMM:  15    -0.506568021424E+03    0.60782E-03   -0.49240E-04  2100   0.478E-02    0.187E-01
RMM:  16    -0.506567937626E+03    0.83798E-04   -0.20399E-04  2100   0.297E-02    0.159E-01
RMM:  17    -0.506567834414E+03    0.10321E-03   -0.11572E-04  2101   0.210E-02    0.118E-01
RMM:  18    -0.506567770313E+03    0.64101E-04   -0.77843E-05  2097   0.180E-02    0.768E-02
RMM:  19    -0.506567762331E+03    0.79822E-05   -0.56034E-05  2101   0.144E-02    0.940E-02
RMM:  20    -0.506567734003E+03    0.28328E-04   -0.32734E-05  2098   0.115E-02    0.384E-02
RMM:  21    -0.506567777319E+03   -0.43316E-04   -0.17104E-05  2096   0.829E-03    0.496E-02
RMM:  22    -0.506567823558E+03   -0.46239E-04   -0.93606E-06  1956   0.630E-03    0.269E-02
RMM:  23    -0.506567882955E+03   -0.59397E-04   -0.52966E-06  1762   0.482E-03    0.289E-02
RMM:  24    -0.506568009316E+03   -0.12636E-03   -0.41510E-06  1656   0.402E-03    0.210E-02
RMM:  25    -0.506568104701E+03   -0.95385E-04   -0.31619E-06  1570   0.362E-03    0.224E-02
RMM:  26    -0.506568286865E+03   -0.18216E-03   -0.44554E-06  1657   0.367E-03    0.203E-02
RMM:  27    -0.506568452704E+03   -0.16584E-03   -0.44217E-06  1660   0.375E-03    0.213E-02
RMM:  28    -0.506568716987E+03   -0.26428E-03   -0.73391E-06  1800   0.397E-03    0.155E-02
RMM:  29    -0.506568874283E+03   -0.15730E-03   -0.41768E-06  1583   0.336E-03    0.146E-02
RMM:  30    -0.506569036713E+03   -0.16243E-03   -0.37906E-06  1513   0.294E-03    0.982E-03
RMM:  31    -0.506569117867E+03   -0.81154E-04   -0.17461E-06  1294   0.234E-03    0.105E-02
RMM:  32    -0.506569207262E+03   -0.89395E-04   -0.16765E-06  1304   0.208E-03    0.769E-03
RMM:  33    -0.506569239565E+03   -0.32303E-04   -0.63064E-07  1219   0.150E-03    0.555E-03
RMM:  34    -0.506569293400E+03   -0.53835E-04   -0.76973E-07  1252   0.121E-03    0.469E-03
RMM:  35    -0.506569309118E+03   -0.15718E-04   -0.26303E-07  1206   0.981E-04    0.355E-03
RMM:  36    -0.506569333860E+03   -0.24742E-04   -0.30978E-07  1213   0.744E-04    0.387E-03
RMM:  37    -0.506569342623E+03   -0.87630E-05   -0.12792E-07  1115   0.673E-04    0.228E-03
RMM:  38    -0.506569355741E+03   -0.13118E-04   -0.15077E-07  1023   0.492E-04    0.262E-03
RMM:  39    -0.506569361607E+03   -0.58663E-05   -0.84054E-08   992   0.509E-04    0.186E-03
RMM:  40    -0.506569368830E+03   -0.72229E-05   -0.11770E-07  1043   0.446E-04    0.232E-03
RMM:  41    -0.506569372809E+03   -0.39788E-05   -0.93394E-08   984   0.458E-04    0.145E-03
RMM:  42    -0.506569375687E+03   -0.28783E-05   -0.94009E-08   964   0.402E-04    0.195E-03
RMM:  43    -0.506569377512E+03   -0.18249E-05   -0.79225E-08   957   0.418E-04    0.104E-03
RMM:  44    -0.506569378981E+03   -0.14692E-05   -0.52132E-08   899   0.366E-04    0.147E-03
RMM:  45    -0.506569380226E+03   -0.12452E-05   -0.33737E-08   818   0.341E-04    0.742E-04
RMM:  46    -0.506569381177E+03   -0.95034E-06   -0.13555E-08   593   0.285E-04
   5 F= -.54113786E+03 E0= -.54114995E+03  d E =-.638822E+00  mag=    96.8751
       N       E                     dE             d eps       ncg     rms          rms(c)
DAV:   1    -0.506501745963E+03    0.67634E-01   -0.64163E+01  2096   0.988E+00    0.341E+00
RMM:   2    -0.506802676002E+03   -0.30093E+00   -0.11552E+00  2104   0.266E+00    0.600E+00
RMM:   3    -0.506987267375E+03   -0.18459E+00   -0.57438E-01  2161   0.153E+00    0.932E+00
RMM:   4    -0.506792770204E+03    0.19450E+00   -0.22749E-01  2100   0.989E-01    0.474E+00
RMM:   5    -0.506728925859E+03    0.63844E-01   -0.58635E-02  2103   0.504E-01    0.183E+00
RMM:   6    -0.506727213402E+03    0.17125E-02   -0.12108E-02  2109   0.214E-01    0.167E+00
RMM:   7    -0.506723045739E+03    0.41677E-02   -0.93038E-03  2100   0.191E-01    0.141E+00
RMM:   8    -0.506716129736E+03    0.69160E-02   -0.57248E-03  2100   0.160E-01    0.578E-01
RMM:   9    -0.506717841977E+03   -0.17122E-02   -0.57242E-03  2105   0.152E-01    0.101E+00
RMM:  10    -0.506716931349E+03    0.91063E-03   -0.63302E-03  2105   0.156E-01    0.902E-01
RMM:  11    -0.506716447954E+03    0.48340E-03   -0.49223E-03  2105   0.140E-01    0.865E-01
RMM:  12    -0.506714466643E+03    0.19813E-02   -0.24424E-03  2102   0.100E-01    0.387E-01
RMM:  13    -0.506714218508E+03    0.24814E-03   -0.73371E-04  2101   0.558E-02    0.238E-01
RMM:  14    -0.506714154731E+03    0.63777E-04   -0.31024E-04  2100   0.361E-02    0.213E-01
RMM:  15    -0.506713980779E+03    0.17395E-03   -0.15794E-04  2097   0.269E-02    0.803E-02
RMM:  16    -0.506713973943E+03    0.68363E-05   -0.71643E-05  2100   0.171E-02    0.116E-01
RMM:  17    -0.506713911300E+03    0.62643E-04   -0.46594E-05  2098   0.133E-02    0.654E-02
RMM:  18    -0.506713872022E+03    0.39278E-04   -0.35140E-05  2101   0.119E-02    0.588E-02
RMM:  19    -0.506713822741E+03    0.49281E-04   -0.23888E-05  2096   0.944E-03    0.422E-02
RMM:  20    -0.506713801790E+03    0.20950E-04   -0.11955E-05  2075   0.704E-03    0.269E-02
RMM:  21    -0.506713789967E+03    0.11823E-04   -0.49692E-06  1772   0.456E-03    0.248E-02
RMM:  22    -0.506713786133E+03    0.38348E-05   -0.26199E-06  1465   0.387E-03    0.110E-02
RMM:  23    -0.506713791532E+03   -0.53995E-05   -0.12048E-06  1199   0.245E-03    0.147E-02
RMM:  24    -0.506713798454E+03   -0.69218E-05   -0.84497E-07  1185   0.224E-03    0.759E-03
RMM:  25    -0.506713810998E+03   -0.12544E-04   -0.46656E-07  1186   0.148E-03    0.843E-03
RMM:  26    -0.506713827321E+03   -0.16323E-04   -0.39905E-07  1191   0.138E-03    0.651E-03
RMM:  27    -0.506713845248E+03   -0.17927E-04   -0.31802E-07  1187   0.114E-03    0.670E-03
RMM:  28    -0.506713875700E+03   -0.30452E-04   -0.39342E-07  1207   0.115E-03    0.484E-03
RMM:  29    -0.506713907460E+03   -0.31759E-04   -0.41369E-07  1203   0.113E-03    0.585E-03
RMM:  30    -0.506713950593E+03   -0.43133E-04   -0.55326E-07  1235   0.116E-03    0.389E-03
RMM:  31    -0.506713980790E+03   -0.30197E-04   -0.36343E-07  1207   0.955E-04    0.502E-03
RMM:  32    -0.506714013658E+03   -0.32868E-04   -0.39967E-07  1224   0.955E-04    0.337E-03
RMM:  33    -0.506714032387E+03   -0.18728E-04   -0.21736E-07  1153   0.758E-04    0.300E-03
RMM:  34    -0.506714059926E+03   -0.27539E-04   -0.32937E-07  1217   0.703E-04    0.226E-03
RMM:  35    -0.506714071383E+03   -0.11457E-04   -0.14060E-07  1101   0.607E-04    0.250E-03
RMM:  36    -0.506714084895E+03   -0.13512E-04   -0.17140E-07  1067   0.538E-04    0.168E-03
RMM:  37    -0.506714088345E+03   -0.34501E-05   -0.49855E-08   916   0.410E-04    0.109E-03
RMM:  38    -0.506714092292E+03   -0.39467E-05   -0.36682E-08   703   0.317E-04    0.106E-03
RMM:  39    -0.506714093492E+03   -0.12010E-05   -0.13041E-08   590   0.278E-04    0.692E-04
RMM:  40    -0.506714094980E+03   -0.14875E-05   -0.19771E-08   556   0.283E-04    0.789E-04
RMM:  41    -0.506714095565E+03   -0.58539E-06   -0.15073E-08   508   0.272E-04
   6 F= -.54128041E+03 E0= -.54129110E+03  d E =-.142551E+00  mag=    96.9132
       N       E                     dE             d eps       ncg     rms          rms(c)
DAV:   1    -0.506668063090E+03    0.46032E-01   -0.20809E+01  2104   0.561E+00    0.192E+00
RMM:   2    -0.506759878219E+03   -0.91815E-01   -0.33810E-01  2104   0.142E+00    0.322E+00
RMM:   3    -0.506843168801E+03   -0.83291E-01   -0.17861E-01  2161   0.856E-01    0.565E+00
RMM:   4    -0.506804761320E+03    0.38407E-01   -0.69576E-02  2100   0.545E-01    0.421E+00
RMM:   5    -0.506742820288E+03    0.61941E-01   -0.24115E-02  2102   0.321E-01    0.136E+00
RMM:   6    -0.506737240742E+03    0.55795E-02   -0.61620E-03  2103   0.160E-01    0.545E-01
RMM:   7    -0.506737851764E+03   -0.61102E-03   -0.27462E-03  2101   0.105E-01    0.746E-01
RMM:   8    -0.506735996667E+03    0.18551E-02   -0.17456E-03  2101   0.873E-02    0.337E-01
RMM:   9    -0.506736912077E+03   -0.91541E-03   -0.18069E-03  2103   0.855E-02    0.676E-01
RMM:  10    -0.506736410045E+03    0.50203E-03   -0.21644E-03  2103   0.906E-02    0.538E-01
RMM:  11    -0.506735872179E+03    0.53787E-03   -0.14108E-03  2104   0.762E-02    0.359E-01
RMM:  12    -0.506735567694E+03    0.30448E-03   -0.56531E-04  2101   0.479E-02    0.204E-01
RMM:  13    -0.506735473052E+03    0.94643E-04   -0.16557E-04  2100   0.266E-02    0.973E-02
RMM:  14    -0.506735473090E+03   -0.38199E-07   -0.75709E-05  2100   0.177E-02    0.111E-01
RMM:  15    -0.506735429644E+03    0.43446E-04   -0.41056E-05  2096   0.135E-02    0.481E-02
RMM:  16    -0.506735424604E+03    0.50395E-05   -0.17997E-05  2096   0.860E-03    0.502E-02
RMM:  17    -0.506735407784E+03    0.16821E-04   -0.14881E-05  2096   0.717E-03    0.371E-02
RMM:  18    -0.506735393325E+03    0.14458E-04   -0.10436E-05  2064   0.641E-03    0.264E-02
RMM:  19    -0.506735376044E+03    0.17282E-04   -0.60660E-06  1889   0.476E-03    0.235E-02
RMM:  20    -0.506735368882E+03    0.71614E-05   -0.30283E-06  1563   0.386E-03    0.121E-02
RMM:  21    -0.506735364426E+03    0.44566E-05   -0.11452E-06  1189   0.249E-03    0.108E-02
RMM:  22    -0.506735363259E+03    0.11672E-05   -0.60262E-07  1163   0.197E-03    0.448E-03
RMM:  23    -0.506735363919E+03   -0.66071E-06   -0.24511E-07  1165   0.112E-03
   7 F= -.54130185E+03 E0= -.54131174E+03  d E =-.163989E+00  mag=    96.9168
       N       E                     dE             d eps       ncg     rms          rms(c)
DAV:   1    -0.506694103475E+03    0.41260E-01   -0.31413E+01  2096   0.687E+00    0.234E+00
RMM:   2    -0.506818173623E+03   -0.12407E+00   -0.50549E-01  2100   0.174E+00    0.324E+00
RMM:   3    -0.506916453807E+03   -0.98280E-01   -0.25038E-01  2185   0.102E+00    0.577E+00
RMM:   4    -0.506819149902E+03    0.97304E-01   -0.98419E-02  2100   0.663E-01    0.248E+00
RMM:   5    -0.506802611911E+03    0.16538E-01   -0.20066E-02  2103   0.290E-01    0.115E+00
RMM:   6    -0.506801324719E+03    0.12872E-02   -0.45029E-03  2110   0.128E-01    0.965E-01
RMM:   7    -0.506799447666E+03    0.18771E-02   -0.29723E-03  2100   0.110E-01    0.780E-01
RMM:   8    -0.506797440758E+03    0.20069E-02   -0.21388E-03  2104   0.946E-02    0.462E-01
RMM:   9    -0.506797454395E+03   -0.13637E-04   -0.21651E-03  2103   0.921E-02    0.579E-01
RMM:  10    -0.506797538232E+03   -0.83837E-04   -0.29040E-03  2104   0.102E-01    0.668E-01
RMM:  11    -0.506797217857E+03    0.32038E-03   -0.25890E-03  2108   0.997E-02    0.620E-01
RMM:  12    -0.506796163952E+03    0.10539E-02   -0.12135E-03  2103   0.705E-02    0.268E-01
RMM:  13    -0.506795965564E+03    0.19839E-03   -0.31318E-04  2102   0.362E-02    0.106E-01
RMM:  14    -0.506795987862E+03   -0.22297E-04   -0.10124E-04  2099   0.204E-02    0.129E-01
RMM:  15    -0.506795942428E+03    0.45434E-04   -0.51945E-05  2097   0.152E-02    0.472E-02
RMM:  16    -0.506795962688E+03   -0.20260E-04   -0.24646E-05  2096   0.992E-03    0.660E-02
RMM:  17    -0.506795984503E+03   -0.21815E-04   -0.26651E-05  2098   0.962E-03    0.524E-02
RMM:  18    -0.506796002020E+03   -0.17517E-04   -0.17867E-05  2096   0.835E-03    0.319E-02
RMM:  19    -0.506796040846E+03   -0.38826E-04   -0.10780E-05  2096   0.617E-03    0.331E-02
RMM:  20    -0.506796058425E+03   -0.17579E-04   -0.49766E-06  1768   0.458E-03    0.152E-02
RMM:  21    -0.506796083560E+03   -0.25135E-04   -0.19031E-06  1307   0.313E-03    0.184E-02
RMM:  22    -0.506796107822E+03   -0.24262E-04   -0.12199E-06  1211   0.272E-03    0.876E-03
RMM:  23    -0.506796128423E+03   -0.20601E-04   -0.54090E-07  1198   0.158E-03    0.101E-02
RMM:  24    -0.506796167902E+03   -0.39479E-04   -0.59688E-07  1229   0.153E-03    0.840E-03
RMM:  25    -0.506796195436E+03   -0.27534E-04   -0.45564E-07  1210   0.139E-03    0.709E-03
RMM:  26    -0.506796250022E+03   -0.54586E-04   -0.72168E-07  1286   0.134E-03    0.784E-03
RMM:  27    -0.506796289704E+03   -0.39682E-04   -0.58171E-07  1239   0.141E-03    0.525E-03
RMM:  28    -0.506796352314E+03   -0.62609E-04   -0.10082E-06  1347   0.135E-03    0.683E-03
RMM:  29    -0.506796397640E+03   -0.45326E-04   -0.84098E-07  1301   0.146E-03    0.448E-03
RMM:  30    -0.506796434878E+03   -0.37238E-04   -0.75519E-07  1311   0.119E-03    0.488E-03
RMM:  31    -0.506796455016E+03   -0.20139E-04   -0.42595E-07  1234   0.107E-03    0.323E-03
RMM:  32    -0.506796470842E+03   -0.15826E-04   -0.34029E-07  1224   0.819E-04    0.329E-03
RMM:  33    -0.506796477000E+03   -0.61581E-05   -0.15783E-07  1161   0.737E-04    0.193E-03
RMM:  34    -0.506796482495E+03   -0.54947E-05   -0.11690E-07  1075   0.526E-04    0.213E-03
RMM:  35    -0.506796485250E+03   -0.27545E-05   -0.69210E-08  1026   0.491E-04    0.114E-03
RMM:  36    -0.506796486983E+03   -0.17328E-05   -0.38570E-08   800   0.341E-04    0.134E-03
RMM:  37    -0.506796487662E+03   -0.67992E-06   -0.17018E-08   667   0.300E-04
   8 F= -.54135963E+03 E0= -.54136960E+03  d E =-.577754E-01  mag=    96.8754
       N       E                     dE             d eps       ncg     rms          rms(c)
DAV:   1    -0.506766202084E+03    0.30285E-01   -0.13283E+01  2096   0.446E+00    0.151E+00
RMM:   2    -0.506817360894E+03   -0.51159E-01   -0.20468E-01  2100   0.110E+00    0.205E+00
RMM:   3    -0.506865309624E+03   -0.47949E-01   -0.10463E-01  2185   0.656E-01    0.392E+00
RMM:   4    -0.506833397315E+03    0.31912E-01   -0.39467E-02  2100   0.416E-01    0.252E+00
RMM:   5    -0.506813495534E+03    0.19902E-01   -0.10320E-02  2106   0.206E-01    0.102E+00
RMM:   6    -0.506810121400E+03    0.33741E-02   -0.30721E-03  2100   0.113E-01    0.399E-01
RMM:   7    -0.506809974811E+03    0.14659E-03   -0.12010E-03  2101   0.699E-02    0.437E-01
RMM:   8    -0.506809324773E+03    0.65004E-03   -0.84954E-04  2100   0.595E-02    0.292E-01
RMM:   9    -0.506809456555E+03   -0.13178E-03   -0.99592E-04  2107   0.625E-02    0.408E-01
RMM:  10    -0.506809420008E+03    0.36546E-04   -0.13246E-03  2101   0.683E-02    0.450E-01
RMM:  11    -0.506809012681E+03    0.40733E-03   -0.10166E-03  2109   0.630E-02    0.326E-01
RMM:  12    -0.506808718441E+03    0.29424E-03   -0.38082E-04  2102   0.393E-02    0.159E-01
RMM:  13    -0.506808650328E+03    0.68113E-04   -0.10046E-04  2100   0.204E-02    0.688E-02
RMM:  14    -0.506808662783E+03   -0.12455E-04   -0.37337E-05  2096   0.123E-02    0.866E-02
RMM:  15    -0.506808645297E+03    0.17486E-04   -0.20633E-05  2096   0.939E-03    0.326E-02
RMM:  16    -0.506808655424E+03   -0.10127E-04   -0.10617E-05  2086   0.654E-03    0.380E-02
RMM:  17    -0.506808676221E+03   -0.20797E-04   -0.11908E-05  2095   0.628E-03    0.335E-02
RMM:  18    -0.506808691427E+03   -0.15206E-04   -0.76898E-06  2003   0.544E-03    0.193E-02
RMM:  19    -0.506808719260E+03   -0.27834E-04   -0.40214E-06  1667   0.401E-03    0.216E-02
RMM:  20    -0.506808733155E+03   -0.13895E-04   -0.21890E-06  1309   0.355E-03    0.102E-02
RMM:  21    -0.506808751466E+03   -0.18311E-04   -0.88982E-07  1204   0.210E-03    0.118E-02
RMM:  22    -0.506808770874E+03   -0.19408E-04   -0.59128E-07  1202   0.185E-03    0.622E-03
RMM:  23    -0.506808789351E+03   -0.18477E-04   -0.33136E-07  1196   0.119E-03    0.733E-03
RMM:  24    -0.506808823040E+03   -0.33688E-04   -0.41212E-07  1224   0.120E-03    0.587E-03
RMM:  25    -0.506808847976E+03   -0.24936E-04   -0.33768E-07  1212   0.110E-03    0.626E-03
RMM:  26    -0.506808895884E+03   -0.47908E-04   -0.63427E-07  1289   0.111E-03    0.594E-03
RMM:  27    -0.506808921528E+03   -0.25644E-04   -0.38338E-07  1221   0.111E-03    0.434E-03
RMM:  28    -0.506808967948E+03   -0.46421E-04   -0.81233E-07  1332   0.113E-03    0.602E-03
RMM:  29    -0.506808993588E+03   -0.25640E-04   -0.50690E-07  1253   0.115E-03    0.301E-03
RMM:  30    -0.506809011420E+03   -0.17831E-04   -0.35760E-07  1227   0.846E-04    0.380E-03
RMM:  31    -0.506809022644E+03   -0.11224E-04   -0.23687E-07  1183   0.804E-04    0.192E-03
RMM:  32    -0.506809028709E+03   -0.60651E-05   -0.13232E-07  1105   0.574E-04    0.249E-03
RMM:  33    -0.506809032318E+03   -0.36088E-05   -0.83643E-08  1071   0.533E-04    0.122E-03
RMM:  34    -0.506809034317E+03   -0.19993E-05   -0.43672E-08   912   0.378E-04    0.143E-03
RMM:  35    -0.506809035889E+03   -0.15721E-05   -0.35748E-08   828   0.342E-04    0.769E-04
RMM:  36    -0.506809036382E+03   -0.49242E-06   -0.12290E-08   570   0.280E-04
   9 F= -.54137051E+03 E0= -.54138046E+03  d E =-.686614E-01  mag=    96.8422
       N       E                     dE             d eps       ncg     rms          rms(c)
DAV:   1    -0.506762614749E+03    0.46421E-01   -0.22614E+01  2096   0.574E+00    0.195E+00
RMM:   2    -0.506857247078E+03   -0.94632E-01   -0.37563E-01  2103   0.146E+00    0.318E+00
RMM:   3    -0.506939807152E+03   -0.82560E-01   -0.20152E-01  2181   0.887E-01    0.563E+00
RMM:   4    -0.506873592980E+03    0.66214E-01   -0.77473E-02  2101   0.571E-01    0.297E+00
RMM:   5    -0.506843638041E+03    0.29955E-01   -0.14525E-02  2104   0.240E-01    0.134E+00
RMM:   6    -0.506838981973E+03    0.46561E-02   -0.64854E-03  2100   0.160E-01    0.724E-01
RMM:   7    -0.506837861274E+03    0.11207E-02   -0.27113E-03  2103   0.105E-01    0.570E-01
RMM:   8    -0.506837066707E+03    0.79457E-03   -0.17910E-03  2101   0.862E-02    0.468E-01
RMM:   9    -0.506837052112E+03    0.14596E-04   -0.16858E-03  2105   0.802E-02    0.536E-01
RMM:  10    -0.506836792562E+03    0.25955E-03   -0.22137E-03  2102   0.895E-02    0.444E-01
RMM:  11    -0.506836841990E+03   -0.49428E-04   -0.17335E-03  2106   0.820E-02    0.495E-01
RMM:  12    -0.506836127555E+03    0.71443E-03   -0.73849E-04  2103   0.553E-02    0.206E-01
RMM:  13    -0.506836038775E+03    0.88780E-04   -0.16545E-04  2105   0.258E-02    0.983E-02
RMM:  14    -0.506836056781E+03   -0.18006E-04   -0.80878E-05  2098   0.183E-02    0.112E-01
RMM:  15    -0.506836018172E+03    0.38609E-04   -0.42376E-05  2098   0.137E-02    0.390E-02
RMM:  16    -0.506836027364E+03   -0.91924E-05   -0.19524E-05  2096   0.877E-03    0.520E-02
RMM:  17    -0.506836027502E+03   -0.13725E-06   -0.15407E-05  2095   0.728E-03    0.276E-02
RMM:  18    -0.506836033242E+03   -0.57406E-05   -0.80028E-06  1963   0.569E-03    0.280E-02
RMM:  19    -0.506836040607E+03   -0.73651E-05   -0.52692E-06  1807   0.462E-03    0.236E-02
RMM:  20    -0.506836043253E+03   -0.26460E-05   -0.26812E-06  1460   0.377E-03    0.110E-02
RMM:  21    -0.506836048968E+03   -0.57151E-05   -0.11596E-06  1198   0.247E-03    0.125E-02
RMM:  22    -0.506836051429E+03   -0.24610E-05   -0.74515E-07  1171   0.215E-03    0.558E-03
RMM:  23    -0.506836054238E+03   -0.28086E-05   -0.29164E-07  1169   0.122E-03    0.624E-03
RMM:  24    -0.506836056699E+03   -0.24614E-05   -0.20450E-07  1169   0.111E-03    0.366E-03
RMM:  25    -0.506836058768E+03   -0.20683E-05   -0.11934E-07  1166   0.758E-04    0.458E-03
RMM:  26    -0.506836060833E+03   -0.20653E-05   -0.91474E-08  1156   0.693E-04    0.315E-03
RMM:  27    -0.506836062276E+03   -0.14429E-05   -0.71159E-08  1106   0.574E-04    0.388E-03
RMM:  28    -0.506836064544E+03   -0.22677E-05   -0.86430E-08  1174   0.606E-04    0.247E-03
RMM:  29    -0.506836065951E+03   -0.14078E-05   -0.84042E-08  1167   0.602E-04    0.329E-03
RMM:  30    -0.506836066582E+03   -0.63051E-06   -0.86665E-08  1137   0.557E-04
  10 F= -.54139284E+03 E0= -.54140313E+03  d E =-.223267E-01  mag=    96.8692
       N       E                     dE             d eps       ncg     rms          rms(c)
DAV:   1    -0.506836099516E+03   -0.33565E-04   -0.15721E-03  2192   0.479E-02    0.163E-02
RMM:   2    -0.506836106456E+03   -0.69400E-05   -0.25034E-05  2094   0.117E-02    0.268E-02
RMM:   3    -0.506836112971E+03   -0.65147E-05   -0.13413E-05  2081   0.729E-03    0.496E-02
RMM:   4    -0.506836109917E+03    0.30541E-05   -0.49823E-06  1719   0.466E-03    0.379E-02
RMM:   5    -0.506836105236E+03    0.46806E-05   -0.18519E-06  1246   0.320E-03    0.102E-02
RMM:   6    -0.506836105465E+03   -0.22853E-06   -0.53310E-07  1164   0.161E-03
  11 F= -.54139284E+03 E0= -.54140314E+03  d E =-.223291E-01  mag=    96.8698
       N       E                     dE             d eps       ncg     rms          rms(c)
DAV:   1    -0.506808651087E+03    0.27454E-01   -0.12249E+01  2096   0.430E+00    0.159E+00
RMM:   2    -0.506866986304E+03   -0.58335E-01   -0.18840E-01  2102   0.102E+00    0.264E+00
RMM:   3    -0.506958491315E+03   -0.91505E-01   -0.11969E-01  2111   0.694E-01    0.553E+00
RMM:   4    -0.506911616329E+03    0.46875E-01   -0.46787E-02  2102   0.445E-01    0.383E+00
RMM:   5    -0.506855657497E+03    0.55959E-01   -0.21706E-02  2100   0.306E-01    0.947E-01
RMM:   6    -0.506852958273E+03    0.26992E-02   -0.43771E-03  2101   0.136E-01    0.441E-01
RMM:   7    -0.506853181173E+03   -0.22290E-03   -0.17968E-03  2100   0.860E-02    0.548E-01
RMM:   8    -0.506852157333E+03    0.10238E-02   -0.11036E-03  2102   0.699E-02    0.273E-01
RMM:   9    -0.506852352154E+03   -0.19482E-03   -0.89773E-04  2105   0.592E-02    0.410E-01
RMM:  10    -0.506852123078E+03    0.22908E-03   -0.10947E-03  2102   0.636E-02    0.351E-01
RMM:  11    -0.506851931605E+03    0.19147E-03   -0.78304E-04  2101   0.556E-02    0.287E-01
RMM:  12    -0.506851638962E+03    0.29264E-03   -0.34283E-04  2101   0.378E-02    0.103E-01
RMM:  13    -0.506851612920E+03    0.26042E-04   -0.92981E-05  2099   0.197E-02    0.862E-02
RMM:  14    -0.506851584081E+03    0.28839E-04   -0.41770E-05  2097   0.135E-02    0.788E-02
RMM:  15    -0.506851560941E+03    0.23140E-04   -0.17988E-05  2067   0.901E-03    0.345E-02
RMM:  16    -0.506851562070E+03   -0.11287E-05   -0.92001E-06  1930   0.607E-03    0.472E-02
RMM:  17    -0.506851557997E+03    0.40729E-05   -0.71122E-06  1995   0.536E-03    0.240E-02
RMM:  18    -0.506851563112E+03   -0.51156E-05   -0.44975E-06  1728   0.443E-03    0.247E-02
RMM:  19    -0.506851575470E+03   -0.12358E-04   -0.35583E-06  1618   0.400E-03    0.201E-02
RMM:  20    -0.506851583915E+03   -0.84450E-05   -0.21558E-06  1301   0.342E-03    0.124E-02
RMM:  21    -0.506851601376E+03   -0.17461E-04   -0.13130E-06  1218   0.254E-03    0.138E-02
RMM:  22    -0.506851614321E+03   -0.12946E-04   -0.92639E-07  1191   0.236E-03    0.771E-03
RMM:  23    -0.506851633293E+03   -0.18972E-04   -0.53943E-07  1208   0.156E-03    0.985E-03
RMM:  24    -0.506851655959E+03   -0.22666E-04   -0.51063E-07  1214   0.160E-03    0.720E-03
RMM:  25    -0.506851676733E+03   -0.20773E-04   -0.37376E-07  1208   0.121E-03    0.756E-03
RMM:  26    -0.506851708320E+03   -0.31587E-04   -0.48062E-07  1234   0.128E-03    0.614E-03
RMM:  27    -0.506851739447E+03   -0.31127E-04   -0.52029E-07  1243   0.128E-03    0.665E-03
RMM:  28    -0.506851786520E+03   -0.47073E-04   -0.90887E-07  1332   0.137E-03    0.559E-03
RMM:  29    -0.506851813621E+03   -0.27101E-04   -0.59294E-07  1256   0.130E-03    0.608E-03
RMM:  30    -0.506851838606E+03   -0.24985E-04   -0.57707E-07  1277   0.116E-03    0.318E-03
RMM:  31    -0.506851848423E+03   -0.98170E-05   -0.23743E-07  1196   0.850E-04    0.297E-03
RMM:  32    -0.506851858599E+03   -0.10176E-04   -0.20500E-07  1181   0.692E-04    0.216E-03
RMM:  33    -0.506851862329E+03   -0.37304E-05   -0.84141E-08  1072   0.535E-04    0.182E-03
RMM:  34    -0.506851867505E+03   -0.51759E-05   -0.73052E-08  1003   0.426E-04    0.136E-03
RMM:  35    -0.506851869397E+03   -0.18916E-05   -0.30122E-08   882   0.368E-04    0.118E-03
RMM:  36    -0.506851872285E+03   -0.28885E-05   -0.25895E-08   686   0.312E-04    0.100E-03
RMM:  37    -0.506851873351E+03   -0.10657E-05   -0.10072E-08   551   0.282E-04    0.808E-04
RMM:  38    -0.506851874746E+03   -0.13952E-05   -0.15073E-08   561   0.284E-04    0.942E-04
RMM:  39    -0.506851875689E+03   -0.94273E-06   -0.82901E-09   486   0.270E-04
  12 F= -.54140578E+03 E0= -.54141619E+03  d E =-.129384E-01  mag=    96.8236
       N       E                     dE             d eps       ncg     rms          rms(c)
DAV:   1    -0.506850705785E+03    0.11690E-02   -0.63848E-01  2120   0.981E-01    0.361E-01
RMM:   2    -0.506853508217E+03   -0.28024E-02   -0.93237E-03  2103   0.224E-01    0.549E-01
RMM:   3    -0.506857790601E+03   -0.42824E-02   -0.62531E-03  2109   0.159E-01    0.120E+00
RMM:   4    -0.506855926854E+03    0.18637E-02   -0.23980E-03  2100   0.102E-01    0.861E-01
RMM:   5    -0.506853083185E+03    0.28437E-02   -0.95585E-04  2100   0.641E-02    0.202E-01
RMM:   6    -0.506852978601E+03    0.10458E-03   -0.19991E-04  2102   0.293E-02    0.822E-02
RMM:   7    -0.506852996350E+03   -0.17749E-04   -0.77520E-05  2098   0.177E-02    0.121E-01
RMM:   8    -0.506852946082E+03    0.50268E-04   -0.55156E-05  2101   0.153E-02    0.610E-02
RMM:   9    -0.506852958342E+03   -0.12260E-04   -0.47930E-05  2098   0.136E-02    0.986E-02
RMM:  10    -0.506852942828E+03    0.15514E-04   -0.57808E-05  2098   0.145E-02    0.817E-02
RMM:  11    -0.506852930146E+03    0.12682E-04   -0.36377E-05  2097   0.121E-02    0.580E-02
RMM:  12    -0.506852920977E+03    0.91683E-05   -0.13288E-05  2040   0.740E-03    0.296E-02
RMM:  13    -0.506852919273E+03    0.17042E-05   -0.34221E-06  1632   0.387E-03    0.185E-02
RMM:  14    -0.506852918165E+03    0.11080E-05   -0.15130E-06  1223   0.280E-03    0.143E-02
RMM:  15    -0.506852916650E+03    0.15151E-05   -0.87600E-07  1180   0.226E-03    0.730E-03
RMM:  16    -0.506852916207E+03    0.44299E-06   -0.44531E-07  1161   0.149E-03
  13 F= -.54140622E+03 E0= -.54141667E+03  d E =-.133791E-01  mag=    96.8184
       N       E                     dE             d eps       ncg     rms          rms(c)
DAV:   1    -0.506840681150E+03    0.12235E-01   -0.62683E+00  2096   0.301E+00    0.885E-01
RMM:   2    -0.506864152779E+03   -0.23472E-01   -0.10162E-01  2101   0.755E-01    0.159E+00
RMM:   3    -0.506879425345E+03   -0.15273E-01   -0.45085E-02  2219   0.419E-01    0.248E+00
RMM:   4    -0.506872441515E+03    0.69838E-02   -0.14918E-02  2105   0.248E-01    0.198E+00
RMM:   5    -0.506859511524E+03    0.12930E-01   -0.49558E-03  2102   0.143E-01    0.543E-01
RMM:   6    -0.506858622030E+03    0.88949E-03   -0.14052E-03  2103   0.754E-02    0.279E-01
RMM:   7    -0.506858611131E+03    0.10899E-04   -0.60564E-04  2102   0.487E-02    0.347E-01
RMM:   8    -0.506858264601E+03    0.34653E-03   -0.45982E-04  2102   0.427E-02    0.229E-01
RMM:   9    -0.506858378348E+03   -0.11375E-03   -0.52108E-04  2106   0.447E-02    0.314E-01
RMM:  10    -0.506858341441E+03    0.36907E-04   -0.71468E-04  2098   0.499E-02    0.281E-01
RMM:  11    -0.506858171171E+03    0.17027E-03   -0.44094E-04  2103   0.419E-02    0.177E-01
RMM:  12    -0.506858074908E+03    0.96263E-04   -0.14360E-04  2103   0.241E-02    0.981E-02
RMM:  13    -0.506858048970E+03    0.25939E-04   -0.37070E-05  2099   0.124E-02    0.452E-02
RMM:  14    -0.506858046119E+03    0.28506E-05   -0.15399E-05  2096   0.787E-03    0.463E-02
RMM:  15    -0.506858037525E+03    0.85935E-05   -0.97350E-06  2095   0.621E-03    0.216E-02
RMM:  16    -0.506858036836E+03    0.68991E-06   -0.51265E-06  1820   0.449E-03
  14 F= -.54141090E+03 E0= -.54142157E+03  d E =-.467482E-02  mag=    96.8111
       N       E                     dE             d eps       ncg     rms          rms(c)
DAV:   1    -0.506857938263E+03    0.99263E-04   -0.35663E-02  2176   0.228E-01    0.685E-02
RMM:   2    -0.506858104829E+03   -0.16657E-03   -0.59560E-04  2105   0.578E-02    0.150E-01
RMM:   3    -0.506858132736E+03   -0.27908E-04   -0.27095E-04  2206   0.330E-02    0.169E-01
RMM:   4    -0.506858142295E+03   -0.95590E-05   -0.91270E-05  2099   0.194E-02    0.167E-01
RMM:   5    -0.506858053087E+03    0.89208E-04   -0.34468E-05  2096   0.121E-02    0.555E-02
RMM:   6    -0.506858045980E+03    0.71071E-05   -0.10460E-05  1944   0.669E-03    0.207E-02
RMM:   7    -0.506858047846E+03   -0.18658E-05   -0.36057E-06  1653   0.399E-03    0.272E-02
RMM:   8    -0.506858048395E+03   -0.54848E-06   -0.29192E-06  1442   0.379E-03
  15 F= -.54141093E+03 E0= -.54142160E+03  d E =-.471285E-02  mag=    96.8091
       N       E                     dE             d eps       ncg     rms          rms(c)
DAV:   1    -0.506856802685E+03    0.12452E-02   -0.15937E+00  2100   0.155E+00    0.457E-01
RMM:   2    -0.506862848451E+03   -0.60458E-02   -0.23664E-02  2105   0.372E-01    0.834E-01
RMM:   3    -0.506869386904E+03   -0.65385E-02   -0.11260E-02  2201   0.212E-01    0.159E+00
RMM:   4    -0.506866766626E+03    0.26203E-02   -0.44514E-03  2102   0.136E-01    0.116E+00
RMM:   5    -0.506861670987E+03    0.50956E-02   -0.19036E-03  2102   0.917E-02    0.363E-01
RMM:   6    -0.506861259940E+03    0.41105E-03   -0.44653E-04  2100   0.439E-02    0.130E-01
RMM:   7    -0.506861262273E+03   -0.23331E-05   -0.13592E-04  2104   0.236E-02    0.149E-01
RMM:   8    -0.506861198547E+03    0.63726E-04   -0.92134E-05  2098   0.191E-02    0.111E-01
RMM:   9    -0.506861207224E+03   -0.86770E-05   -0.10760E-04  2103   0.206E-02    0.134E-01
RMM:  10    -0.506861234379E+03   -0.27154E-04   -0.14970E-04  2101   0.231E-02    0.158E-01
RMM:  11    -0.506861184333E+03    0.50045E-04   -0.12201E-04  2110   0.217E-02    0.106E-01
RMM:  12    -0.506861158182E+03    0.26152E-04   -0.51987E-05  2098   0.145E-02    0.573E-02
RMM:  13    -0.506861149141E+03    0.90405E-05   -0.13828E-05  2051   0.744E-03    0.226E-02
RMM:  14    -0.506861149938E+03   -0.79678E-06   -0.36019E-06  1640   0.400E-03
  16 F= -.54141314E+03 E0= -.54142384E+03  d E =-.221065E-02  mag=    96.8080
