       N       E                     dE             d eps       ncg     rms          rms(c)
DAV:   1     0.670078502647E+04    0.67008E+04   -0.31202E+05  2096   0.144E+03
DAV:   2     0.371168505726E+03   -0.63296E+04   -0.57871E+04  2096   0.352E+02
DAV:   3    -0.484169653077E+03   -0.85534E+03   -0.69655E+03  2276   0.156E+02
DAV:   4    -0.553812249719E+03   -0.69643E+02   -0.65969E+02  2352   0.457E+01
DAV:   5    -0.555463099386E+03   -0.16508E+01   -0.16456E+01  2400   0.745E+00    0.101E+02
RMM:   6    -0.721836367482E+03   -0.16637E+03   -0.93521E+02  2100   0.717E+01    0.190E+02
RMM:   7    -0.557716621858E+03    0.16412E+03   -0.25241E+02  2101   0.339E+01    0.121E+02
RMM:   8    -0.706090746786E+03   -0.14837E+03   -0.10190E+02  2098   0.208E+01    0.181E+02
RMM:   9    -0.603452120339E+03    0.10264E+03   -0.11692E+02  2100   0.218E+01    0.155E+02
RMM:  10    -0.490823165530E+03    0.11263E+03   -0.12132E+02  2101   0.243E+01    0.102E+02
RMM:  11    -0.505068587308E+03   -0.14245E+02   -0.94820E+01  2100   0.212E+01    0.131E+02
RMM:  12    -0.463851584385E+03    0.41217E+02   -0.84618E+01  2101   0.206E+01    0.991E+01
RMM:  13    -0.441595009626E+03    0.22257E+02   -0.40726E+01  2101   0.148E+01    0.731E+01
RMM:  14    -0.432837695251E+03    0.87573E+01   -0.20572E+01  2100   0.990E+00    0.633E+01
RMM:  15    -0.428917651353E+03    0.39200E+01   -0.11883E+01  2100   0.743E+00    0.491E+01
RMM:  16    -0.432622950407E+03   -0.37053E+01   -0.98034E+00  2100   0.680E+00    0.426E+01
RMM:  17    -0.437369866428E+03   -0.47469E+01   -0.61290E+00  2102   0.521E+00    0.368E+01
RMM:  18    -0.443928863331E+03   -0.65590E+01   -0.41217E+00  2101   0.393E+00    0.369E+01
RMM:  19    -0.452753361062E+03   -0.88245E+01   -0.48669E+00  2101   0.431E+00    0.405E+01
RMM:  20    -0.459329206899E+03   -0.65758E+01   -0.65321E+00  2100   0.491E+00    0.311E+01
RMM:  21    -0.467596040750E+03   -0.82668E+01   -0.63484E+00  2100   0.461E+00    0.286E+01
RMM:  22    -0.475412196844E+03   -0.78162E+01   -0.57235E+00  2100   0.433E+00    0.301E+01
RMM:  23    -0.479026111346E+03   -0.36139E+01   -0.35064E+00  2100   0.352E+00    0.281E+01
RMM:  24    -0.484381986048E+03   -0.53559E+01   -0.52066E+00  2100   0.383E+00    0.268E+01
RMM:  25    -0.486272328352E+03   -0.18903E+01   -0.27774E+00  2100   0.308E+00    0.217E+01
RMM:  26    -0.488806710373E+03   -0.25344E+01   -0.21085E+00  2100   0.255E+00    0.215E+01
RMM:  27    -0.489471551729E+03   -0.66484E+00   -0.12445E+00  2100   0.195E+00    0.139E+01
RMM:  28    -0.491086290418E+03   -0.16147E+01   -0.82164E-01  2100   0.156E+00    0.144E+01
RMM:  29    -0.492108569369E+03   -0.10223E+01   -0.62399E-01  2100   0.135E+00    0.127E+01
RMM:  30    -0.493177247355E+03   -0.10687E+01   -0.52079E-01  2100   0.126E+00    0.128E+01
RMM:  31    -0.494013253375E+03   -0.83601E+00   -0.50511E-01  2099   0.112E+00    0.105E+01
RMM:  32    -0.494603097846E+03   -0.58984E+00   -0.30976E-01  2100   0.965E-01    0.994E+00
RMM:  33    -0.495208011229E+03   -0.60491E+00   -0.23476E-01  2099   0.708E-01    0.892E+00
RMM:  34    -0.495493435929E+03   -0.28542E+00   -0.11256E-01  2100   0.574E-01    0.847E+00
RMM:  35    -0.496052084522E+03   -0.55865E+00   -0.20808E-01  2099   0.737E-01    0.946E+00
RMM:  36    -0.496425307734E+03   -0.37322E+00   -0.22554E-01  2099   0.740E-01    0.722E+00
RMM:  37    -0.497277886304E+03   -0.85258E+00   -0.56388E-01  2099   0.119E+00    0.111E+01
RMM:  38    -0.497540772109E+03   -0.26289E+00   -0.66826E-01  2099   0.129E+00    0.754E+00
RMM:  39    -0.497711764476E+03   -0.17099E+00   -0.30267E-01  2100   0.100E+00    0.727E+00
RMM:  40    -0.497835747811E+03   -0.12398E+00   -0.15051E-01  2100   0.714E-01    0.483E+00
RMM:  41    -0.497962152017E+03   -0.12640E+00   -0.55921E-02  2100   0.460E-01    0.443E+00
RMM:  42    -0.498119390856E+03   -0.15724E+00   -0.31298E-02  2100   0.305E-01    0.404E+00
RMM:  43    -0.498224213379E+03   -0.10482E+00   -0.25392E-02  2100   0.298E-01    0.372E+00
RMM:  44    -0.498552329985E+03   -0.32812E+00   -0.84233E-02  2100   0.449E-01    0.433E+00
RMM:  45    -0.498673800443E+03   -0.12147E+00   -0.50823E-02  2100   0.406E-01    0.347E+00
RMM:  46    -0.498879504451E+03   -0.20570E+00   -0.52305E-02  2100   0.372E-01    0.317E+00
RMM:  47    -0.498954791054E+03   -0.75287E-01   -0.26929E-02  2100   0.309E-01    0.244E+00
RMM:  48    -0.499051861090E+03   -0.97070E-01   -0.20777E-02  2100   0.256E-01    0.245E+00
RMM:  49    -0.499096229173E+03   -0.44368E-01   -0.11832E-02  2100   0.207E-01    0.187E+00
RMM:  50    -0.499153279594E+03   -0.57050E-01   -0.11514E-02  2100   0.195E-01    0.208E+00
RMM:  51    -0.499232304174E+03   -0.79025E-01   -0.18435E-02  2100   0.233E-01    0.152E+00
RMM:  52    -0.499257657080E+03   -0.25353E-01   -0.10702E-02  2100   0.194E-01    0.138E+00
RMM:  53    -0.499274367141E+03   -0.16710E-01   -0.63501E-03  2100   0.156E-01    0.100E+00
RMM:  54    -0.499305958322E+03   -0.31591E-01   -0.51550E-03  2100   0.131E-01    0.122E+00
RMM:  55    -0.499325432768E+03   -0.19474E-01   -0.36074E-03  2100   0.116E-01    0.979E-01
RMM:  56    -0.499360390002E+03   -0.34957E-01   -0.58661E-03  2100   0.133E-01    0.939E-01
RMM:  57    -0.499371558900E+03   -0.11169E-01   -0.41020E-03  2100   0.117E-01    0.586E-01
RMM:  58    -0.499379396178E+03   -0.78373E-02   -0.23446E-03  2100   0.906E-02    0.538E-01
RMM:  59    -0.499385419976E+03   -0.60238E-02   -0.12830E-03  2100   0.708E-02    0.555E-01
RMM:  60    -0.499396557636E+03   -0.11138E-01   -0.97099E-04  2100   0.560E-02    0.502E-01
RMM:  61    -0.499394114420E+03    0.24432E-02   -0.19138E-03  2100   0.865E-02    0.713E-01
RMM:  62    -0.499399205474E+03   -0.50911E-02   -0.89849E-04  2100   0.595E-02    0.406E-01
RMM:  63    -0.499404878600E+03   -0.56731E-02   -0.45580E-04  2100   0.415E-02    0.367E-01
RMM:  64    -0.499410969753E+03   -0.60912E-02   -0.31995E-04  2100   0.337E-02    0.244E-01
RMM:  65    -0.499415035016E+03   -0.40653E-02   -0.24307E-04  2100   0.293E-02    0.221E-01
RMM:  66    -0.499418966174E+03   -0.39312E-02   -0.23729E-04  2099   0.283E-02    0.192E-01
RMM:  67    -0.499427304281E+03   -0.83381E-02   -0.23170E-04  2100   0.241E-02    0.213E-01
RMM:  68    -0.499431305042E+03   -0.40008E-02   -0.10948E-04  2098   0.176E-02    0.137E-01
RMM:  69    -0.499435411015E+03   -0.41060E-02   -0.82223E-05  2097   0.143E-02    0.102E-01
RMM:  70    -0.499439664121E+03   -0.42531E-02   -0.10261E-04  2098   0.144E-02    0.987E-02
RMM:  71    -0.499442720492E+03   -0.30564E-02   -0.69266E-05  2096   0.129E-02    0.954E-02
RMM:  72    -0.499446047103E+03   -0.33266E-02   -0.64224E-05  2096   0.108E-02    0.788E-02
RMM:  73    -0.499449533061E+03   -0.34860E-02   -0.69720E-05  2097   0.107E-02    0.769E-02
RMM:  74    -0.499453741660E+03   -0.42086E-02   -0.92910E-05  2096   0.113E-02    0.789E-02
RMM:  75    -0.499457253388E+03   -0.35117E-02   -0.90212E-05  2096   0.106E-02    0.658E-02
RMM:  76    -0.499457262999E+03   -0.96108E-05   -0.32011E-05  2096   0.110E-02    0.926E-02
RMM:  77    -0.499461154743E+03   -0.38917E-02   -0.13108E-04  2096   0.130E-02    0.499E-02
RMM:  78    -0.499463612446E+03   -0.24577E-02   -0.89559E-05  2096   0.963E-03    0.509E-02
RMM:  79    -0.499465572944E+03   -0.19605E-02   -0.62994E-05  2082   0.823E-03    0.441E-02
RMM:  80    -0.499466704155E+03   -0.11312E-02   -0.27782E-05  1942   0.619E-03    0.372E-02
RMM:  81    -0.499466191311E+03    0.51284E-03   -0.12699E-05  1964   0.668E-03    0.525E-02
RMM:  82    -0.499467900484E+03   -0.17092E-02   -0.47951E-05  2025   0.716E-03    0.202E-02
RMM:  83    -0.499468108926E+03   -0.20844E-03   -0.90398E-06  1673   0.341E-03    0.161E-02
RMM:  84    -0.499468216163E+03   -0.10724E-03   -0.57569E-06  1530   0.315E-03    0.185E-02
RMM:  85    -0.499468261940E+03   -0.45777E-04   -0.49940E-06  1479   0.290E-03    0.114E-02
RMM:  86    -0.499468273206E+03   -0.11266E-04   -0.30622E-06  1430   0.241E-03    0.125E-02
RMM:  87    -0.499468250413E+03    0.22793E-04   -0.22785E-06  1400   0.234E-03    0.103E-02
RMM:  88    -0.499468220697E+03    0.29715E-04   -0.10589E-06  1311   0.161E-03    0.675E-03
RMM:  89    -0.499468205948E+03    0.14750E-04   -0.58016E-07  1245   0.134E-03    0.515E-03
RMM:  90    -0.499468222687E+03   -0.16739E-04   -0.43327E-07  1225   0.115E-03    0.592E-03
RMM:  91    -0.499468221220E+03    0.14667E-05   -0.33478E-07  1205   0.109E-03    0.674E-03
RMM:  92    -0.499468272606E+03   -0.51386E-04   -0.30182E-07  1187   0.942E-04    0.425E-03
RMM:  93    -0.499468295984E+03   -0.23378E-04   -0.20124E-07  1139   0.688E-04    0.360E-03
RMM:  94    -0.499468344313E+03   -0.48329E-04   -0.29628E-07  1167   0.711E-04    0.269E-03
RMM:  95    -0.499468370298E+03   -0.25986E-04   -0.23423E-07  1104   0.599E-04    0.256E-03
RMM:  96    -0.499468399339E+03   -0.29040E-04   -0.15621E-07  1121   0.612E-04    0.285E-03
RMM:  97    -0.499468408415E+03   -0.90764E-05   -0.74857E-08  1013   0.526E-04    0.195E-03
RMM:  98    -0.499468438032E+03   -0.29617E-04   -0.18278E-07  1007   0.453E-04    0.184E-03
RMM:  99    -0.499468451141E+03   -0.13109E-04   -0.80513E-08   944   0.407E-04    0.149E-03
RMM: 100    -0.499468463979E+03   -0.12838E-04   -0.73925E-08   858   0.379E-04    0.116E-03
RMM: 101    -0.499468470989E+03   -0.70096E-05   -0.44075E-08   856   0.352E-04    0.133E-03
RMM: 102    -0.499468480951E+03   -0.99621E-05   -0.64062E-08   794   0.342E-04    0.834E-04
RMM: 103    -0.499468486641E+03   -0.56899E-05   -0.57902E-08   717   0.312E-04    0.779E-04
RMM: 104    -0.499468492755E+03   -0.61141E-05   -0.78820E-08   761   0.324E-04    0.714E-04
RMM: 105    -0.499468496300E+03   -0.35457E-05   -0.75771E-08   695   0.311E-04    0.583E-04
RMM: 106    -0.499468497320E+03   -0.10198E-05   -0.23450E-08   562   0.291E-04    0.619E-04
RMM: 107    -0.499468498848E+03   -0.15274E-05   -0.28617E-08   552   0.282E-04    0.402E-04
RMM: 108    -0.499468499742E+03   -0.89467E-06   -0.22189E-08   551   0.275E-04
   1 F= -.53366200E+03 E0= -.53366663E+03  d E =-.533662E+03  mag=    96.5663
       N       E                     dE             d eps       ncg     rms          rms(c)
DAV:   1    -0.498149278217E+03    0.13192E+01   -0.17647E+03  2096   0.492E+01    0.142E+01
RMM:   2    -0.509027184082E+03   -0.10878E+02   -0.47142E+01  2100   0.158E+01    0.456E+01
RMM:   3    -0.504412282712E+03    0.46149E+01   -0.12934E+01  2276   0.689E+00    0.243E+01
RMM:   4    -0.506712034299E+03   -0.22998E+01   -0.35097E+00  2107   0.363E+00    0.323E+01
RMM:   5    -0.503468221372E+03    0.32438E+01   -0.14035E+00  2103   0.235E+00    0.145E+01
RMM:   6    -0.503116204455E+03    0.35202E+00   -0.10725E+00  2100   0.206E+00    0.133E+01
RMM:   7    -0.503021764787E+03    0.94440E-01   -0.77538E-01  2100   0.177E+00    0.121E+01
RMM:   8    -0.502701925476E+03    0.31984E+00   -0.51247E-01  2101   0.148E+00    0.688E+00
RMM:   9    -0.502838401185E+03   -0.13648E+00   -0.44209E-01  2100   0.133E+00    0.900E+00
RMM:  10    -0.502729863198E+03    0.10854E+00   -0.39503E-01  2102   0.129E+00    0.755E+00
RMM:  11    -0.502668679472E+03    0.61184E-01   -0.27630E-01  2101   0.107E+00    0.640E+00
RMM:  12    -0.502582757415E+03    0.85922E-01   -0.14722E-01  2101   0.793E-01    0.376E+00
RMM:  13    -0.502564006717E+03    0.18751E-01   -0.58743E-02  2100   0.506E-01    0.265E+00
RMM:  14    -0.502555801370E+03    0.82053E-02   -0.32782E-02  2100   0.375E-01    0.207E+00
RMM:  15    -0.502547974406E+03    0.78270E-02   -0.17725E-02  2100   0.275E-01    0.133E+00
RMM:  16    -0.502547396244E+03    0.57816E-03   -0.10262E-02  2100   0.206E-01    0.115E+00
RMM:  17    -0.502544757051E+03    0.26392E-02   -0.53662E-03  2102   0.152E-01    0.826E-01
RMM:  18    -0.502543026556E+03    0.17305E-02   -0.27164E-03  2102   0.104E-01    0.451E-01
RMM:  19    -0.502543292947E+03   -0.26639E-03   -0.17726E-03  2100   0.843E-02    0.486E-01
RMM:  20    -0.502543548954E+03   -0.25601E-03   -0.12444E-03  2100   0.701E-02    0.472E-01
RMM:  21    -0.502543098744E+03    0.45021E-03   -0.72764E-04  2102   0.551E-02    0.214E-01
RMM:  22    -0.502543285388E+03   -0.18664E-03   -0.32653E-04  2100   0.360E-02    0.229E-01
RMM:  23    -0.502543356224E+03   -0.70836E-04   -0.20818E-04  2100   0.290E-02    0.150E-01
RMM:  24    -0.502543453671E+03   -0.97447E-04   -0.10535E-04  2097   0.211E-02    0.115E-01
RMM:  25    -0.502543604242E+03   -0.15057E-03   -0.59920E-05  2099   0.154E-02    0.763E-02
RMM:  26    -0.502543675340E+03   -0.71098E-04   -0.30491E-05  2096   0.115E-02    0.530E-02
RMM:  27    -0.502543764872E+03   -0.89532E-04   -0.16190E-05  2072   0.813E-03    0.596E-02
RMM:  28    -0.502543808552E+03   -0.43680E-04   -0.85761E-06  1895   0.614E-03    0.244E-02
RMM:  29    -0.502543861655E+03   -0.53103E-04   -0.53178E-06  1774   0.480E-03    0.289E-02
RMM:  30    -0.502543935177E+03   -0.73521E-04   -0.39474E-06  1653   0.422E-03    0.199E-02
RMM:  31    -0.502543968033E+03   -0.32856E-04   -0.21773E-06  1356   0.328E-03    0.141E-02
RMM:  32    -0.502544015899E+03   -0.47866E-04   -0.13161E-06  1232   0.245E-03    0.129E-02
RMM:  33    -0.502544033468E+03   -0.17569E-04   -0.77959E-07  1189   0.209E-03    0.727E-03
RMM:  34    -0.502544060994E+03   -0.27527E-04   -0.44007E-07  1201   0.135E-03    0.743E-03
RMM:  35    -0.502544076373E+03   -0.15378E-04   -0.29272E-07  1180   0.127E-03    0.327E-03
RMM:  36    -0.502544091844E+03   -0.15471E-04   -0.18460E-07  1187   0.806E-04    0.506E-03
RMM:  37    -0.502544104212E+03   -0.12368E-04   -0.13726E-07  1159   0.787E-04    0.224E-03
RMM:  38    -0.502544113072E+03   -0.88597E-05   -0.71075E-08   985   0.487E-04    0.274E-03
RMM:  39    -0.502544124912E+03   -0.11841E-04   -0.68812E-08   959   0.459E-04    0.177E-03
RMM:  40    -0.502544132445E+03   -0.75326E-05   -0.40804E-08   835   0.368E-04    0.182E-03
RMM:  41    -0.502544147479E+03   -0.15035E-04   -0.92090E-08   902   0.385E-04    0.155E-03
RMM:  42    -0.502544155378E+03   -0.78985E-05   -0.53058E-08   877   0.372E-04    0.154E-03
RMM:  43    -0.502544167779E+03   -0.12402E-04   -0.10392E-07   954   0.385E-04    0.145E-03
RMM:  44    -0.502544173941E+03   -0.61619E-05   -0.52512E-08   870   0.352E-04    0.110E-03
RMM:  45    -0.502544182017E+03   -0.80752E-05   -0.78802E-08   828   0.345E-04    0.118E-03
RMM:  46    -0.502544185646E+03   -0.36291E-05   -0.38004E-08   743   0.319E-04    0.758E-04
RMM:  47    -0.502544190042E+03   -0.43963E-05   -0.72700E-08   839   0.337E-04    0.105E-03
RMM:  48    -0.502544191584E+03   -0.15416E-05   -0.36455E-08   711   0.306E-04    0.518E-04
RMM:  49    -0.502544192260E+03   -0.67655E-06   -0.26295E-08   560   0.277E-04
   2 F= -.53674804E+03 E0= -.53675460E+03  d E =-.308603E+01  mag=    96.5440
       N       E                     dE             d eps       ncg     rms          rms(c)
DAV:   1    -0.502540286765E+03    0.39048E-02   -0.25421E+00  2160   0.179E+00    0.445E-01
RMM:   2    -0.502553596516E+03   -0.13310E-01   -0.49886E-02  2100   0.498E-01    0.157E+00
RMM:   3    -0.502548456253E+03    0.51403E-02   -0.13909E-02  2320   0.221E-01    0.890E-01
RMM:   4    -0.502551473824E+03   -0.30176E-02   -0.41508E-03  2107   0.124E-01    0.121E+00
RMM:   5    -0.502546618736E+03    0.48551E-02   -0.19169E-03  2101   0.899E-02    0.491E-01
RMM:   6    -0.502545988283E+03    0.63045E-03   -0.66710E-04  2100   0.541E-02    0.209E-01
RMM:   7    -0.502546144623E+03   -0.15634E-03   -0.41363E-04  2100   0.406E-02    0.310E-01
RMM:   8    -0.502545918279E+03    0.22634E-03   -0.45832E-04  2102   0.412E-02    0.222E-01
RMM:   9    -0.502545991288E+03   -0.73008E-04   -0.45130E-04  2104   0.418E-02    0.273E-01
RMM:  10    -0.502546031710E+03   -0.40423E-04   -0.41731E-04  2102   0.390E-02    0.277E-01
RMM:  11    -0.502545809237E+03    0.22247E-03   -0.22620E-04  2100   0.309E-02    0.111E-01
RMM:  12    -0.502545789651E+03    0.19586E-04   -0.69477E-05  2099   0.169E-02    0.918E-02
RMM:  13    -0.502545763243E+03    0.26408E-04   -0.23695E-05  2096   0.979E-03    0.349E-02
RMM:  14    -0.502545762045E+03    0.11979E-05   -0.85329E-06  2022   0.578E-03    0.280E-02
RMM:  15    -0.502545761872E+03    0.17331E-06   -0.69381E-06  2077   0.477E-03
   3 F= -.53675134E+03 E0= -.53675806E+03  d E =-.308934E+01  mag=    96.5436
       N       E                     dE             d eps       ncg     rms          rms(c)
DAV:   1    -0.502277980327E+03    0.26778E+00   -0.27688E+02  2096   0.204E+01    0.698E+00
RMM:   2    -0.504142298594E+03   -0.18643E+01   -0.61885E+00  2102   0.607E+00    0.189E+01
RMM:   3    -0.503906648713E+03    0.23565E+00   -0.25840E+00  2166   0.327E+00    0.158E+01
RMM:   4    -0.504028932069E+03   -0.12228E+00   -0.85440E-01  2101   0.187E+00    0.153E+01
RMM:   5    -0.503287815341E+03    0.74112E+00   -0.30612E-01  2104   0.113E+00    0.583E+00
RMM:   6    -0.503195453050E+03    0.92362E-01   -0.14062E-01  2100   0.756E-01    0.387E+00
RMM:   7    -0.503188043856E+03    0.74092E-02   -0.74024E-02  2100   0.552E-01    0.348E+00
RMM:   8    -0.503154555852E+03    0.33488E-01   -0.41548E-02  2102   0.430E-01    0.189E+00
RMM:   9    -0.503157440182E+03   -0.28843E-02   -0.25152E-02  2101   0.321E-01    0.225E+00
RMM:  10    -0.503155017987E+03    0.24222E-02   -0.28789E-02  2101   0.331E-01    0.205E+00
RMM:  11    -0.503147858126E+03    0.71599E-02   -0.25135E-02  2103   0.321E-01    0.162E+00
RMM:  12    -0.503144586335E+03    0.32718E-02   -0.15505E-02  2102   0.253E-01    0.139E+00
RMM:  13    -0.503140191021E+03    0.43953E-02   -0.68216E-03  2100   0.170E-01    0.657E-01
RMM:  14    -0.503140563623E+03   -0.37260E-03   -0.31333E-03  2100   0.116E-01    0.651E-01
RMM:  15    -0.503139320931E+03    0.12427E-02   -0.14668E-03  2100   0.825E-02    0.247E-01
RMM:  16    -0.503139402915E+03   -0.81984E-04   -0.53282E-04  2101   0.479E-02    0.254E-01
RMM:  17    -0.503139409799E+03   -0.68841E-05   -0.30913E-04  2102   0.351E-02    0.190E-01
RMM:  18    -0.503139397598E+03    0.12201E-04   -0.18127E-04  2100   0.278E-02    0.118E-01
RMM:  19    -0.503139517508E+03   -0.11991E-03   -0.12640E-04  2100   0.218E-02    0.145E-01
RMM:  20    -0.503139509774E+03    0.77348E-05   -0.73737E-05  2102   0.173E-02    0.615E-02
RMM:  21    -0.503139564691E+03   -0.54917E-04   -0.37973E-05  2099   0.124E-02    0.758E-02
RMM:  22    -0.503139603306E+03   -0.38615E-04   -0.20938E-05  2096   0.927E-03    0.453E-02
RMM:  23    -0.503139625488E+03   -0.22182E-04   -0.98071E-06  1920   0.650E-03    0.280E-02
RMM:  24    -0.503139667848E+03   -0.42360E-04   -0.58251E-06  1779   0.501E-03    0.342E-02
RMM:  25    -0.503139700284E+03   -0.32436E-04   -0.34567E-06  1637   0.420E-03    0.132E-02
RMM:  26    -0.503139732172E+03   -0.31889E-04   -0.13800E-06  1244   0.254E-03    0.150E-02
RMM:  27    -0.503139764835E+03   -0.32662E-04   -0.10087E-06  1230   0.233E-03    0.951E-03
RMM:  28    -0.503139790595E+03   -0.25761E-04   -0.53663E-07  1206   0.155E-03    0.943E-03
RMM:  29    -0.503139828969E+03   -0.38374E-04   -0.53764E-07  1230   0.145E-03    0.856E-03
RMM:  30    -0.503139870084E+03   -0.41115E-04   -0.56748E-07  1242   0.142E-03    0.791E-03
RMM:  31    -0.503139914846E+03   -0.44762E-04   -0.56159E-07  1247   0.130E-03    0.652E-03
RMM:  32    -0.503139958947E+03   -0.44101E-04   -0.55183E-07  1250   0.120E-03    0.743E-03
RMM:  33    -0.503139994910E+03   -0.35964E-04   -0.45318E-07  1235   0.112E-03    0.506E-03
RMM:  34    -0.503140034632E+03   -0.39721E-04   -0.50515E-07  1261   0.102E-03    0.583E-03
RMM:  35    -0.503140080992E+03   -0.46360E-04   -0.70739E-07  1296   0.114E-03    0.363E-03
RMM:  36    -0.503140115858E+03   -0.34867E-04   -0.60822E-07  1271   0.101E-03    0.511E-03
RMM:  37    -0.503140143186E+03   -0.27327E-04   -0.56898E-07  1277   0.104E-03    0.289E-03
RMM:  38    -0.503140157353E+03   -0.14167E-04   -0.32420E-07  1170   0.784E-04    0.357E-03
RMM:  39    -0.503140167037E+03   -0.96839E-05   -0.25779E-07  1210   0.748E-04    0.164E-03
RMM:  40    -0.503140171210E+03   -0.41734E-05   -0.15051E-07  1061   0.553E-04    0.233E-03
RMM:  41    -0.503140172619E+03   -0.14088E-05   -0.10919E-07  1017   0.515E-04    0.107E-03
RMM:  42    -0.503140172619E+03   -0.56752E-09   -0.38999E-08   790   0.355E-04
   4 F= -.53736589E+03 E0= -.53737206E+03  d E =-.614548E+00  mag=    96.5228
       N       E                     dE             d eps       ncg     rms          rms(c)
DAV:   1    -0.503113953353E+03    0.26219E-01   -0.14478E+01  2104   0.462E+00    0.151E+00
RMM:   2    -0.503200332458E+03   -0.86379E-01   -0.24909E-01  2101   0.118E+00    0.393E+00
RMM:   3    -0.503198161765E+03    0.21707E-02   -0.11316E-01  2168   0.682E-01    0.368E+00
RMM:   4    -0.503220078712E+03   -0.21917E-01   -0.44133E-02  2101   0.422E-01    0.413E+00
RMM:   5    -0.503160993550E+03    0.59085E-01   -0.19304E-02  2100   0.290E-01    0.126E+00
RMM:   6    -0.503156510573E+03    0.44830E-02   -0.48868E-03  2101   0.144E-01    0.473E-01
RMM:   7    -0.503156725312E+03   -0.21474E-03   -0.19201E-03  2101   0.885E-02    0.570E-01
RMM:   8    -0.503155847088E+03    0.87822E-03   -0.13653E-03  2101   0.753E-02    0.408E-01
RMM:   9    -0.503155889934E+03   -0.42846E-04   -0.12017E-03  2103   0.697E-02    0.453E-01
RMM:  10    -0.503156510244E+03   -0.62031E-03   -0.17056E-03  2100   0.793E-02    0.598E-01
RMM:  11    -0.503155445563E+03    0.10647E-02   -0.11676E-03  2104   0.694E-02    0.282E-01
RMM:  12    -0.503155298117E+03    0.14745E-03   -0.42098E-04  2101   0.413E-02    0.195E-01
RMM:  13    -0.503155215166E+03    0.82952E-04   -0.14280E-04  2102   0.240E-02    0.965E-02
RMM:  14    -0.503155208929E+03    0.62370E-05   -0.55248E-05  2096   0.151E-02    0.679E-02
RMM:  15    -0.503155206220E+03    0.27087E-05   -0.24155E-05  2096   0.990E-03    0.417E-02
RMM:  16    -0.503155214380E+03   -0.81602E-05   -0.16261E-05  2096   0.794E-03    0.447E-02
RMM:  17    -0.503155219956E+03   -0.55760E-05   -0.11925E-05  2096   0.647E-03    0.346E-02
RMM:  18    -0.503155227267E+03   -0.73106E-05   -0.91876E-06  2032   0.592E-03    0.303E-02
RMM:  19    -0.503155232948E+03   -0.56814E-05   -0.56001E-06  1818   0.476E-03    0.216E-02
RMM:  20    -0.503155235762E+03   -0.28141E-05   -0.26865E-06  1468   0.367E-03    0.178E-02
RMM:  21    -0.503155238098E+03   -0.23356E-05   -0.13329E-06  1176   0.268E-03    0.121E-02
RMM:  22    -0.503155240011E+03   -0.19130E-05   -0.65072E-07  1162   0.192E-03    0.729E-03
RMM:  23    -0.503155243691E+03   -0.36798E-05   -0.32109E-07  1165   0.130E-03    0.627E-03
RMM:  24    -0.503155246460E+03   -0.27693E-05   -0.17845E-07  1163   0.101E-03    0.356E-03
RMM:  25    -0.503155249406E+03   -0.29462E-05   -0.82933E-08  1156   0.626E-04    0.359E-03
RMM:  26    -0.503155254523E+03   -0.51167E-05   -0.64482E-08  1099   0.551E-04    0.288E-03
RMM:  27    -0.503155257310E+03   -0.27874E-05   -0.35685E-08   953   0.425E-04    0.247E-03
RMM:  28    -0.503155264307E+03   -0.69968E-05   -0.61401E-08  1061   0.425E-04    0.274E-03
RMM:  29    -0.503155268599E+03   -0.42920E-05   -0.45407E-08   987   0.438E-04    0.191E-03
RMM:  30    -0.503155274690E+03   -0.60910E-05   -0.60271E-08  1004   0.397E-04    0.242E-03
RMM:  31    -0.503155281195E+03   -0.65044E-05   -0.72747E-08   997   0.426E-04    0.153E-03
RMM:  32    -0.503155285337E+03   -0.41427E-05   -0.50819E-08   913   0.371E-04    0.176E-03
RMM:  33    -0.503155290761E+03   -0.54238E-05   -0.76184E-08   918   0.378E-04    0.107E-03
RMM:  34    -0.503155293309E+03   -0.25476E-05   -0.49625E-08   893   0.355E-04    0.129E-03
RMM:  35    -0.503155296322E+03   -0.30130E-05   -0.65829E-08   867   0.354E-04    0.762E-04
RMM:  36    -0.503155297270E+03   -0.94793E-06   -0.30739E-08   732   0.316E-04
   5 F= -.53738742E+03 E0= -.53739332E+03  d E =-.636082E+00  mag=    96.5176
       N       E                     dE             d eps       ncg     rms          rms(c)
DAV:   1    -0.502963196155E+03    0.19210E+00   -0.13681E+02  2096   0.144E+01    0.459E+00
RMM:   2    -0.503605043629E+03   -0.64185E+00   -0.25061E+00  2102   0.379E+00    0.945E+00
RMM:   3    -0.503767712533E+03   -0.16267E+00   -0.11545E+00  2164   0.217E+00    0.117E+01
RMM:   4    -0.503537450618E+03    0.23026E+00   -0.37615E-01  2102   0.126E+00    0.726E+00
RMM:   5    -0.503398836229E+03    0.13861E+00   -0.10365E-01  2102   0.659E-01    0.295E+00
RMM:   6    -0.503379074748E+03    0.19761E-01   -0.34136E-02  2105   0.359E-01    0.238E+00
RMM:   7    -0.503368901362E+03    0.10173E-01   -0.22391E-02  2100   0.303E-01    0.183E+00
RMM:   8    -0.503359515954E+03    0.93854E-02   -0.13286E-02  2101   0.242E-01    0.114E+00
RMM:   9    -0.503362317242E+03   -0.28013E-02   -0.11291E-02  2103   0.212E-01    0.158E+00
RMM:  10    -0.503359554420E+03    0.27628E-02   -0.13479E-02  2101   0.224E-01    0.121E+00
RMM:  11    -0.503358321977E+03    0.12324E-02   -0.10887E-02  2101   0.212E-01    0.120E+00
RMM:  12    -0.503354836986E+03    0.34850E-02   -0.55272E-03  2100   0.153E-01    0.688E-01
RMM:  13    -0.503353667237E+03    0.11697E-02   -0.18046E-03  2100   0.883E-02    0.291E-01
RMM:  14    -0.503353825219E+03   -0.15798E-03   -0.68828E-04  2101   0.539E-02    0.318E-01
RMM:  15    -0.503353547632E+03    0.27759E-03   -0.33952E-04  2100   0.394E-02    0.101E-01
RMM:  16    -0.503353632713E+03   -0.85081E-04   -0.13601E-04  2102   0.230E-02    0.141E-01
RMM:  17    -0.503353670195E+03   -0.37482E-04   -0.10833E-04  2097   0.199E-02    0.986E-02
RMM:  18    -0.503353719241E+03   -0.49046E-04   -0.61879E-05  2102   0.155E-02    0.762E-02
RMM:  19    -0.503353796650E+03   -0.77409E-04   -0.39858E-05  2097   0.118E-02    0.569E-02
RMM:  20    -0.503353831339E+03   -0.34689E-04   -0.17497E-05  2093   0.843E-03    0.346E-02
RMM:  21    -0.503353892608E+03   -0.61269E-04   -0.89684E-06  1943   0.595E-03    0.374E-02
RMM:  22    -0.503353941665E+03   -0.49057E-04   -0.51159E-06  1745   0.487E-03    0.217E-02
RMM:  23    -0.503353991106E+03   -0.49440E-04   -0.22606E-06  1413   0.331E-03    0.161E-02
RMM:  24    -0.503354039531E+03   -0.48426E-04   -0.14117E-06  1214   0.267E-03    0.134E-02
RMM:  25    -0.503354107157E+03   -0.67626E-04   -0.93008E-07  1232   0.206E-03    0.111E-02
RMM:  26    -0.503354151962E+03   -0.44805E-04   -0.56366E-07  1197   0.166E-03    0.751E-03
RMM:  27    -0.503354228282E+03   -0.76320E-04   -0.58104E-07  1228   0.136E-03    0.939E-03
RMM:  28    -0.503354301536E+03   -0.73253E-04   -0.57808E-07  1235   0.145E-03    0.581E-03
RMM:  29    -0.503354395144E+03   -0.93608E-04   -0.68327E-07  1286   0.121E-03    0.734E-03
RMM:  30    -0.503354487792E+03   -0.92648E-04   -0.76344E-07  1304   0.133E-03    0.476E-03
RMM:  31    -0.503354577007E+03   -0.89215E-04   -0.85342E-07  1327   0.119E-03    0.651E-03
RMM:  32    -0.503354665498E+03   -0.88491E-04   -0.10942E-06  1363   0.129E-03    0.429E-03
RMM:  33    -0.503354707010E+03   -0.41512E-04   -0.51589E-07  1254   0.992E-04    0.533E-03
RMM:  34    -0.503354756197E+03   -0.49186E-04   -0.86514E-07  1340   0.102E-03    0.430E-03
RMM:  35    -0.503354772343E+03   -0.16146E-04   -0.39478E-07  1208   0.880E-04    0.248E-03
RMM:  36    -0.503354779164E+03   -0.68209E-05   -0.39924E-07  1255   0.711E-04    0.291E-03
RMM:  37    -0.503354775688E+03    0.34758E-05   -0.16833E-07  1125   0.668E-04    0.136E-03
RMM:  38    -0.503354771452E+03    0.42362E-05   -0.93968E-08   983   0.446E-04    0.185E-03
RMM:  39    -0.503354768762E+03    0.26899E-05   -0.40082E-08   895   0.398E-04    0.768E-04
RMM:  40    -0.503354768238E+03    0.52377E-06   -0.87844E-09   542   0.271E-04
   6 F= -.53759701E+03 E0= -.53760191E+03  d E =-.209589E+00  mag=    96.5170
       N       E                     dE             d eps       ncg     rms          rms(c)
DAV:   1    -0.503354082396E+03    0.68637E-03   -0.16188E-01  2176   0.492E-01    0.152E-01
RMM:   2    -0.503354781325E+03   -0.69893E-03   -0.24898E-03  2101   0.119E-01    0.311E-01
RMM:   3    -0.503355116456E+03   -0.33513E-03   -0.12026E-03  2165   0.699E-02    0.422E-01
RMM:   4    -0.503355065370E+03    0.51086E-04   -0.44574E-04  2103   0.428E-02    0.374E-01
RMM:   5    -0.503354572959E+03    0.49241E-03   -0.18241E-04  2101   0.281E-02    0.103E-01
RMM:   6    -0.503354547016E+03    0.25942E-04   -0.38784E-05  2097   0.126E-02    0.438E-02
RMM:   7    -0.503354550795E+03   -0.37784E-05   -0.16069E-05  2096   0.812E-03    0.536E-02
RMM:   8    -0.503354544152E+03    0.66422E-05   -0.13711E-05  2096   0.748E-03    0.366E-02
RMM:   9    -0.503354551579E+03   -0.74265E-05   -0.14038E-05  2087   0.751E-03    0.536E-02
RMM:  10    -0.503354554927E+03   -0.33483E-05   -0.17219E-05  2096   0.794E-03    0.531E-02
RMM:  11    -0.503354546391E+03    0.85360E-05   -0.96032E-06  1977   0.637E-03    0.269E-02
RMM:  12    -0.503354545197E+03    0.11943E-05   -0.31989E-06  1606   0.382E-03    0.157E-02
RMM:  13    -0.503354544934E+03    0.26295E-06   -0.11326E-06  1162   0.248E-03
   7 F= -.53759726E+03 E0= -.53760212E+03  d E =-.209838E+00  mag=    96.5173
       N       E                     dE             d eps       ncg     rms          rms(c)
DAV:   1    -0.503322373316E+03    0.32172E-01   -0.34318E+01  2096   0.716E+00    0.232E+00
RMM:   2    -0.503477249265E+03   -0.15488E+00   -0.56548E-01  2100   0.183E+00    0.410E+00
RMM:   3    -0.503686435078E+03   -0.20919E+00   -0.23566E-01  2202   0.958E-01    0.806E+00
RMM:   4    -0.503530211374E+03    0.15622E+00   -0.96561E-02  2103   0.614E-01    0.539E+00
RMM:   5    -0.503433948291E+03    0.96263E-01   -0.55618E-02  2100   0.492E-01    0.151E+00
RMM:   6    -0.503428720541E+03    0.52277E-02   -0.10703E-02  2100   0.211E-01    0.821E-01
RMM:   7    -0.503427990169E+03    0.73037E-03   -0.38658E-03  2103   0.124E-01    0.785E-01
RMM:   8    -0.503426384320E+03    0.16058E-02   -0.24825E-03  2101   0.103E-01    0.539E-01
RMM:   9    -0.503427115470E+03   -0.73115E-03   -0.27084E-03  2104   0.102E-01    0.809E-01
RMM:  10    -0.503425769788E+03    0.13457E-02   -0.31048E-03  2104   0.108E-01    0.506E-01
RMM:  11    -0.503426153543E+03   -0.38376E-03   -0.23949E-03  2102   0.977E-02    0.631E-01
RMM:  12    -0.503425048193E+03    0.11053E-02   -0.12921E-03  2100   0.733E-02    0.270E-01
RMM:  13    -0.503424891107E+03    0.15709E-03   -0.39268E-04  2101   0.407E-02    0.158E-01
RMM:  14    -0.503424863574E+03    0.27533E-04   -0.15723E-04  2100   0.256E-02    0.148E-01
RMM:  15    -0.503424801020E+03    0.62554E-04   -0.72569E-05  2099   0.180E-02    0.685E-02
RMM:  16    -0.503424803567E+03   -0.25474E-05   -0.33909E-05  2096   0.118E-02    0.672E-02
RMM:  17    -0.503424798853E+03    0.47142E-05   -0.23215E-05  2096   0.938E-03    0.386E-02
RMM:  18    -0.503424806794E+03   -0.79406E-05   -0.14463E-05  2096   0.751E-03    0.355E-02
RMM:  19    -0.503424825980E+03   -0.19186E-04   -0.10984E-05  2096   0.620E-03    0.273E-02
RMM:  20    -0.503424848993E+03   -0.23013E-04   -0.53823E-06  1794   0.461E-03    0.257E-02
RMM:  21    -0.503424867976E+03   -0.18983E-04   -0.24607E-06  1429   0.353E-03    0.118E-02
RMM:  22    -0.503424899717E+03   -0.31740E-04   -0.13263E-06  1216   0.256E-03    0.149E-02
RMM:  23    -0.503424918883E+03   -0.19166E-04   -0.79944E-07  1181   0.218E-03    0.581E-03
RMM:  24    -0.503424946147E+03   -0.27264E-04   -0.39835E-07  1190   0.133E-03    0.820E-03
RMM:  25    -0.503424974145E+03   -0.27999E-04   -0.30592E-07  1189   0.124E-03    0.458E-03
RMM:  26    -0.503424993896E+03   -0.19750E-04   -0.14197E-07  1172   0.764E-04    0.358E-03
RMM:  27    -0.503425028918E+03   -0.35022E-04   -0.15861E-07  1161   0.691E-04    0.343E-03
RMM:  28    -0.503425049469E+03   -0.20551E-04   -0.92025E-08  1095   0.588E-04    0.217E-03
RMM:  29    -0.503425092090E+03   -0.42621E-04   -0.17192E-07  1126   0.532E-04    0.340E-03
RMM:  30    -0.503425121417E+03   -0.29327E-04   -0.12276E-07  1107   0.559E-04    0.204E-03
RMM:  31    -0.503425158251E+03   -0.36834E-04   -0.16251E-07  1076   0.500E-04    0.250E-03
RMM:  32    -0.503425202675E+03   -0.44424E-04   -0.24843E-07  1079   0.542E-04    0.155E-03
RMM:  33    -0.503425225678E+03   -0.23003E-04   -0.11046E-07   955   0.433E-04    0.174E-03
RMM:  34    -0.503425259328E+03   -0.33650E-04   -0.22344E-07   968   0.462E-04    0.122E-03
RMM:  35    -0.503425275485E+03   -0.16158E-04   -0.10241E-07   946   0.408E-04    0.117E-03
RMM:  36    -0.503425299169E+03   -0.23684E-04   -0.23042E-07   957   0.429E-04    0.981E-04
RMM:  37    -0.503425305486E+03   -0.63171E-05   -0.55626E-08   788   0.345E-04    0.885E-04
RMM:  38    -0.503425312517E+03   -0.70316E-05   -0.77501E-08   768   0.337E-04    0.681E-04
RMM:  39    -0.503425313741E+03   -0.12233E-05   -0.18547E-08   562   0.279E-04    0.405E-04
RMM:  40    -0.503425314434E+03   -0.69305E-06   -0.17031E-08   535   0.269E-04
   8 F= -.53767096E+03 E0= -.53767641E+03  d E =-.736985E-01  mag=    96.5157
       N       E                     dE             d eps       ncg     rms          rms(c)
DAV:   1    -0.503407485316E+03    0.17828E-01   -0.84343E+00  2108   0.355E+00    0.114E+00
RMM:   2    -0.503442808067E+03   -0.35323E-01   -0.12942E-01  2100   0.868E-01    0.190E+00
RMM:   3    -0.503495104612E+03   -0.52297E-01   -0.56998E-02  2205   0.472E-01    0.390E+00
RMM:   4    -0.503457878701E+03    0.37226E-01   -0.23387E-02  2104   0.305E-01    0.266E+00
RMM:   5    -0.503434397968E+03    0.23481E-01   -0.12958E-02  2100   0.238E-01    0.714E-01
RMM:   6    -0.503433119364E+03    0.12786E-02   -0.22175E-03  2100   0.960E-02    0.335E-01
RMM:   7    -0.503433133325E+03   -0.13962E-04   -0.81570E-04  2102   0.570E-02    0.392E-01
RMM:   8    -0.503432696524E+03    0.43680E-03   -0.59093E-04  2101   0.495E-02    0.264E-01
RMM:   9    -0.503432869434E+03   -0.17291E-03   -0.68524E-04  2105   0.514E-02    0.392E-01
RMM:  10    -0.503432608058E+03    0.26138E-03   -0.82028E-04  2102   0.547E-02    0.275E-01
RMM:  11    -0.503432555511E+03    0.52548E-04   -0.54310E-04  2102   0.469E-02    0.260E-01
RMM:  12    -0.503432371770E+03    0.18374E-03   -0.24434E-04  2100   0.317E-02    0.127E-01
RMM:  13    -0.503432327095E+03    0.44675E-04   -0.68040E-05  2102   0.170E-02    0.531E-02
RMM:  14    -0.503432326333E+03    0.76277E-06   -0.23466E-05  2096   0.980E-03    0.587E-02
RMM:  15    -0.503432315775E+03    0.10557E-04   -0.12082E-05  2091   0.721E-03    0.292E-02
RMM:  16    -0.503432317331E+03   -0.15560E-05   -0.63530E-06  1881   0.510E-03    0.269E-02
RMM:  17    -0.503432320655E+03   -0.33243E-05   -0.57457E-06  2015   0.458E-03    0.202E-02
RMM:  18    -0.503432324946E+03   -0.42902E-05   -0.35419E-06  1635   0.383E-03    0.164E-02
RMM:  19    -0.503432331888E+03   -0.69424E-05   -0.23638E-06  1287   0.343E-03    0.124E-02
RMM:  20    -0.503432340550E+03   -0.86619E-05   -0.14067E-06  1182   0.277E-03    0.118E-02
RMM:  21    -0.503432347574E+03   -0.70246E-05   -0.64685E-07  1168   0.190E-03    0.504E-03
RMM:  22    -0.503432357344E+03   -0.97700E-05   -0.30043E-07  1169   0.123E-03    0.663E-03
RMM:  23    -0.503432365219E+03   -0.78747E-05   -0.17440E-07  1164   0.998E-04    0.264E-03
RMM:  24    -0.503432372239E+03   -0.70198E-05   -0.77424E-08  1155   0.589E-04    0.307E-03
RMM:  25    -0.503432383110E+03   -0.10871E-04   -0.61373E-08  1076   0.516E-04    0.222E-03
RMM:  26    -0.503432391463E+03   -0.83533E-05   -0.37048E-08   956   0.405E-04    0.152E-03
RMM:  27    -0.503432404276E+03   -0.12813E-04   -0.45133E-08   919   0.363E-04    0.179E-03
RMM:  28    -0.503432415188E+03   -0.10911E-04   -0.36744E-08   849   0.351E-04    0.107E-03
RMM:  29    -0.503432425541E+03   -0.10353E-04   -0.30687E-08   721   0.315E-04    0.155E-03
RMM:  30    -0.503432439444E+03   -0.13904E-04   -0.51724E-08   735   0.319E-04    0.104E-03
RMM:  31    -0.503432447877E+03   -0.84324E-05   -0.25653E-08   623   0.293E-04    0.832E-04
RMM:  32    -0.503432463933E+03   -0.16056E-04   -0.87103E-08   749   0.331E-04    0.847E-04
RMM:  33    -0.503432470686E+03   -0.67537E-05   -0.26114E-08   608   0.292E-04    0.679E-04
RMM:  34    -0.503432481962E+03   -0.11276E-04   -0.87017E-08   773   0.334E-04    0.741E-04
RMM:  35    -0.503432487399E+03   -0.54363E-05   -0.35374E-08   661   0.294E-04    0.421E-04
RMM:  36    -0.503432492782E+03   -0.53831E-05   -0.51086E-08   703   0.302E-04    0.609E-04
RMM:  37    -0.503432495110E+03   -0.23280E-05   -0.24601E-08   576   0.273E-04    0.371E-04
RMM:  38    -0.503432495994E+03   -0.88416E-06   -0.23461E-08   552   0.268E-04
   9 F= -.53768024E+03 E0= -.53768600E+03  d E =-.829813E-01  mag=    96.5145
       N       E                     dE             d eps       ncg     rms          rms(c)
DAV:   1    -0.503400263506E+03    0.32232E-01   -0.20194E+01  2096   0.552E+00    0.187E+00
RMM:   2    -0.503500273447E+03   -0.10001E+00   -0.31802E-01  2100   0.134E+00    0.339E+00
RMM:   3    -0.503657515720E+03   -0.15724E+00   -0.14578E-01  2176   0.751E-01    0.695E+00
RMM:   4    -0.503527403283E+03    0.13011E+00   -0.64245E-02  2100   0.507E-01    0.404E+00
RMM:   5    -0.503470248567E+03    0.57155E-01   -0.33993E-02  2101   0.388E-01    0.124E+00
RMM:   6    -0.503466619588E+03    0.36290E-02   -0.69204E-03  2100   0.169E-01    0.693E-01
RMM:   7    -0.503466293848E+03    0.32574E-03   -0.26751E-03  2102   0.104E-01    0.655E-01
RMM:   8    -0.503465136490E+03    0.11574E-02   -0.17548E-03  2101   0.863E-02    0.414E-01
RMM:   9    -0.503465293526E+03   -0.15704E-03   -0.15577E-03  2106   0.782E-02    0.545E-01
RMM:  10    -0.503464801120E+03    0.49241E-03   -0.17837E-03  2100   0.817E-02    0.393E-01
RMM:  11    -0.503464928080E+03   -0.12696E-03   -0.13830E-03  2101   0.743E-02    0.448E-01
RMM:  12    -0.503464344654E+03    0.58343E-03   -0.70845E-04  2101   0.544E-02    0.199E-01
RMM:  13    -0.503464261037E+03    0.83617E-04   -0.22311E-04  2102   0.305E-02    0.118E-01
RMM:  14    -0.503464255572E+03    0.54649E-05   -0.87540E-05  2099   0.192E-02    0.112E-01
RMM:  15    -0.503464211045E+03    0.44527E-04   -0.37635E-05  2096   0.132E-02    0.386E-02
RMM:  16    -0.503464211616E+03   -0.57057E-06   -0.15820E-05  2096   0.797E-03    0.513E-02
RMM:  17    -0.503464202572E+03    0.90437E-05   -0.12837E-05  2096   0.693E-03    0.356E-02
RMM:  18    -0.503464198936E+03    0.36364E-05   -0.75695E-06  1929   0.558E-03    0.241E-02
RMM:  19    -0.503464199387E+03   -0.45160E-06   -0.58942E-06  2012   0.465E-03
  10 F= -.53771541E+03 E0= -.53772133E+03  d E =-.351646E-01  mag=    96.5187
       N       E                     dE             d eps       ncg     rms          rms(c)
DAV:   1    -0.503445902695E+03    0.18296E-01   -0.67131E+00  2104   0.318E+00    0.107E+00
RMM:   2    -0.503478272223E+03   -0.32370E-01   -0.10163E-01  2101   0.754E-01    0.191E+00
RMM:   3    -0.503529911969E+03   -0.51640E-01   -0.48305E-02  2172   0.434E-01    0.395E+00
RMM:   4    -0.503488374288E+03    0.41538E-01   -0.21444E-02  2100   0.294E-01    0.237E+00
RMM:   5    -0.503468881231E+03    0.19493E-01   -0.11155E-02  2101   0.223E-01    0.695E-01
RMM:   6    -0.503467673782E+03    0.12074E-02   -0.20350E-03  2100   0.910E-02    0.344E-01
RMM:   7    -0.503467668843E+03    0.49389E-05   -0.77362E-04  2102   0.561E-02    0.364E-01
RMM:   8    -0.503467302331E+03    0.36651E-03   -0.56162E-04  2102   0.481E-02    0.239E-01
RMM:   9    -0.503467347287E+03   -0.44956E-04   -0.52278E-04  2105   0.454E-02    0.306E-01
RMM:  10    -0.503467251806E+03    0.95481E-04   -0.61549E-04  2101   0.475E-02    0.246E-01
RMM:  11    -0.503467226105E+03    0.25702E-04   -0.43387E-04  2100   0.418E-02    0.227E-01
RMM:  12    -0.503467083986E+03    0.14212E-03   -0.19695E-04  2101   0.285E-02    0.112E-01
RMM:  13    -0.503467052326E+03    0.31660E-04   -0.56812E-05  2100   0.155E-02    0.490E-02
RMM:  14    -0.503467059079E+03   -0.67536E-05   -0.19750E-05  2096   0.908E-03    0.566E-02
RMM:  15    -0.503467052198E+03    0.68812E-05   -0.99556E-06  2064   0.665E-03    0.228E-02
RMM:  16    -0.503467057321E+03   -0.51234E-05   -0.41919E-06  1708   0.424E-03    0.247E-02
RMM:  17    -0.503467066798E+03   -0.94764E-05   -0.43924E-06  1749   0.417E-03    0.221E-02
RMM:  18    -0.503467074658E+03   -0.78605E-05   -0.28365E-06  1453   0.367E-03    0.121E-02
RMM:  19    -0.503467087415E+03   -0.12757E-04   -0.17889E-06  1206   0.294E-03    0.121E-02
RMM:  20    -0.503467097639E+03   -0.10224E-04   -0.11605E-06  1181   0.255E-03    0.881E-03
RMM:  21    -0.503467108248E+03   -0.10609E-04   -0.51707E-07  1170   0.162E-03    0.573E-03
RMM:  22    -0.503467119279E+03   -0.11031E-04   -0.25966E-07  1170   0.119E-03    0.434E-03
RMM:  23    -0.503467131351E+03   -0.12072E-04   -0.14004E-07  1173   0.831E-04    0.304E-03
RMM:  24    -0.503467140563E+03   -0.92120E-05   -0.75083E-08  1138   0.582E-04    0.268E-03
RMM:  25    -0.503467154664E+03   -0.14101E-04   -0.67593E-08  1030   0.486E-04    0.279E-03
RMM:  26    -0.503467167357E+03   -0.12694E-04   -0.59581E-08  1047   0.469E-04    0.178E-03
RMM:  27    -0.503467185445E+03   -0.18087E-04   -0.75378E-08  1039   0.414E-04    0.210E-03
RMM:  28    -0.503467201766E+03   -0.16321E-04   -0.66123E-08   957   0.411E-04    0.120E-03
RMM:  29    -0.503467221828E+03   -0.20063E-04   -0.91997E-08   939   0.390E-04    0.165E-03
RMM:  30    -0.503467238939E+03   -0.17111E-04   -0.83946E-08   895   0.390E-04    0.107E-03
RMM:  31    -0.503467250632E+03   -0.11693E-04   -0.53127E-08   791   0.345E-04    0.149E-03
RMM:  32    -0.503467264719E+03   -0.14087E-04   -0.85746E-08   844   0.357E-04    0.103E-03
RMM:  33    -0.503467271588E+03   -0.68686E-05   -0.36496E-08   686   0.313E-04    0.856E-04
RMM:  34    -0.503467281301E+03   -0.97135E-05   -0.91469E-08   839   0.342E-04    0.910E-04
RMM:  35    -0.503467285251E+03   -0.39500E-05   -0.35827E-08   704   0.298E-04    0.441E-04
RMM:  36    -0.503467287554E+03   -0.23029E-05   -0.29831E-08   609   0.278E-04    0.573E-04
RMM:  37    -0.503467288207E+03   -0.65302E-06   -0.17219E-08   533   0.262E-04
  11 F= -.53772081E+03 E0= -.53772683E+03  d E =-.405667E-01  mag=    96.5211
       N       E                     dE             d eps       ncg     rms          rms(c)
DAV:   1    -0.503433640503E+03    0.33647E-01   -0.16949E+01  2096   0.506E+00    0.162E+00
RMM:   2    -0.503516053885E+03   -0.82413E-01   -0.26752E-01  2100   0.123E+00    0.331E+00
RMM:   3    -0.503589044574E+03   -0.72991E-01   -0.12139E-01  2173   0.693E-01    0.532E+00
RMM:   4    -0.503546698262E+03    0.42346E-01   -0.48502E-02  2100   0.438E-01    0.393E+00
RMM:   5    -0.503487253666E+03    0.59445E-01   -0.27132E-02  2101   0.347E-01    0.108E+00
RMM:   6    -0.503484505650E+03    0.27480E-02   -0.50618E-03  2100   0.145E-01    0.578E-01
RMM:   7    -0.503484341425E+03    0.16423E-03   -0.19296E-03  2102   0.883E-02    0.554E-01
RMM:   8    -0.503483321130E+03    0.10203E-02   -0.12754E-03  2101   0.733E-02    0.324E-01
RMM:   9    -0.503483709371E+03   -0.38824E-03   -0.12718E-03  2104   0.703E-02    0.535E-01
RMM:  10    -0.503483322767E+03    0.38660E-03   -0.16299E-03  2100   0.761E-02    0.398E-01
RMM:  11    -0.503483075179E+03    0.24759E-03   -0.10135E-03  2102   0.639E-02    0.323E-01
RMM:  12    -0.503482799970E+03    0.27521E-03   -0.44503E-04  2101   0.420E-02    0.164E-01
RMM:  13    -0.503482737572E+03    0.62398E-04   -0.13817E-04  2100   0.243E-02    0.892E-02
RMM:  14    -0.503482738793E+03   -0.12207E-05   -0.52908E-05  2098   0.149E-02    0.901E-02
RMM:  15    -0.503482712399E+03    0.26394E-04   -0.25881E-05  2096   0.108E-02    0.373E-02
RMM:  16    -0.503482712051E+03    0.34730E-06   -0.11291E-05  2061   0.682E-03    0.400E-02
RMM:  17    -0.503482708863E+03    0.31888E-05   -0.10632E-05  2096   0.610E-03    0.328E-02
RMM:  18    -0.503482703774E+03    0.50889E-05   -0.68065E-06  1940   0.516E-03    0.191E-02
RMM:  19    -0.503482703402E+03    0.37134E-06   -0.38964E-06  1670   0.407E-03
  12 F= -.53774168E+03 E0= -.53774804E+03  d E =-.208691E-01  mag=    96.5251
       N       E                     dE             d eps       ncg     rms          rms(c)
DAV:   1    -0.503470591914E+03    0.12112E-01   -0.40365E+00  2100   0.247E+00    0.786E-01
RMM:   2    -0.503489636686E+03   -0.19045E-01   -0.61416E-02  2100   0.586E-01    0.158E+00
RMM:   3    -0.503506712404E+03   -0.17076E-01   -0.28917E-02  2173   0.339E-01    0.254E+00
RMM:   4    -0.503497551172E+03    0.91612E-02   -0.11502E-02  2100   0.214E-01    0.194E+00
RMM:   5    -0.503483232453E+03    0.14319E-01   -0.63055E-03  2100   0.167E-01    0.519E-01
RMM:   6    -0.503482587734E+03    0.64472E-03   -0.10860E-03  2100   0.666E-02    0.249E-01
RMM:   7    -0.503482578694E+03    0.90399E-05   -0.41559E-04  2102   0.411E-02    0.255E-01
RMM:   8    -0.503482347813E+03    0.23088E-03   -0.29618E-04  2100   0.345E-02    0.159E-01
RMM:   9    -0.503482427134E+03   -0.79321E-04   -0.30109E-04  2102   0.343E-02    0.250E-01
RMM:  10    -0.503482403264E+03    0.23871E-04   -0.39275E-04  2100   0.372E-02    0.225E-01
RMM:  11    -0.503482267935E+03    0.13533E-03   -0.21980E-04  2103   0.299E-02    0.118E-01
RMM:  12    -0.503482239328E+03    0.28608E-04   -0.74536E-05  2102   0.170E-02    0.688E-02
RMM:  13    -0.503482229991E+03    0.93361E-05   -0.22242E-05  2095   0.967E-03    0.362E-02
RMM:  14    -0.503482231528E+03   -0.15365E-05   -0.80804E-06  1887   0.589E-03    0.335E-02
RMM:  15    -0.503482232006E+03   -0.47763E-06   -0.45242E-06  1737   0.458E-03
  13 F= -.53774404E+03 E0= -.53775058E+03  d E =-.232350E-01  mag=    96.5267
       N       E                     dE             d eps       ncg     rms          rms(c)
DAV:   1    -0.503469489086E+03    0.12742E-01   -0.67753E+00  2096   0.321E+00    0.964E-01
RMM:   2    -0.503497934008E+03   -0.28445E-01   -0.10265E-01  2100   0.762E-01    0.198E+00
RMM:   3    -0.503513534478E+03   -0.15600E-01   -0.47252E-02  2162   0.438E-01    0.279E+00
RMM:   4    -0.503508211291E+03    0.53232E-02   -0.16915E-02  2100   0.264E-01    0.219E+00
RMM:   5    -0.503489373508E+03    0.18838E-01   -0.72451E-03  2102   0.177E-01    0.810E-01
RMM:   6    -0.503487530395E+03    0.18431E-02   -0.19820E-03  2100   0.922E-02    0.310E-01
RMM:   7    -0.503487496307E+03    0.34088E-04   -0.62024E-04  2101   0.502E-02    0.319E-01
RMM:   8    -0.503487171823E+03    0.32448E-03   -0.42442E-04  2102   0.411E-02    0.250E-01
RMM:   9    -0.503487102277E+03    0.69546E-04   -0.40421E-04  2100   0.404E-02    0.249E-01
RMM:  10    -0.503487163809E+03   -0.61532E-04   -0.63108E-04  2098   0.476E-02    0.312E-01
RMM:  11    -0.503486891962E+03    0.27185E-03   -0.43680E-04  2103   0.418E-02    0.161E-01
RMM:  12    -0.503486835365E+03    0.56597E-04   -0.14589E-04  2101   0.240E-02    0.101E-01
RMM:  13    -0.503486816144E+03    0.19221E-04   -0.42679E-05  2098   0.132E-02    0.536E-02
RMM:  14    -0.503486818545E+03   -0.24009E-05   -0.14724E-05  2065   0.791E-03    0.395E-02
RMM:  15    -0.503486821660E+03   -0.31149E-05   -0.64795E-06  1913   0.520E-03    0.268E-02
RMM:  16    -0.503486831080E+03   -0.94201E-05   -0.43993E-06  1706   0.444E-03    0.224E-02
RMM:  17    -0.503486852447E+03   -0.21367E-04   -0.44805E-06  1790   0.412E-03    0.192E-02
RMM:  18    -0.503486875964E+03   -0.23517E-04   -0.35648E-06  1572   0.389E-03    0.157E-02
RMM:  19    -0.503486898427E+03   -0.22462E-04   -0.21974E-06  1242   0.330E-03    0.123E-02
RMM:  20    -0.503486917150E+03   -0.18723E-04   -0.12694E-06  1188   0.261E-03    0.109E-02
RMM:  21    -0.503486937504E+03   -0.20354E-04   -0.64623E-07  1187   0.188E-03    0.767E-03
RMM:  22    -0.503486951336E+03   -0.13832E-04   -0.27862E-07  1167   0.120E-03    0.579E-03
RMM:  23    -0.503486977059E+03   -0.25723E-04   -0.22168E-07  1191   0.944E-04    0.544E-03
RMM:  24    -0.503486995920E+03   -0.18860E-04   -0.15161E-07  1182   0.817E-04    0.414E-03
RMM:  25    -0.503487026050E+03   -0.30130E-04   -0.18261E-07  1191   0.714E-04    0.524E-03
RMM:  26    -0.503487078550E+03   -0.52500E-04   -0.40924E-07  1239   0.900E-04    0.376E-03
RMM:  27    -0.503487117252E+03   -0.38702E-04   -0.33007E-07  1223   0.852E-04    0.402E-03
RMM:  28    -0.503487170487E+03   -0.53235E-04   -0.61092E-07  1296   0.897E-04    0.270E-03
RMM:  29    -0.503487191407E+03   -0.20920E-04   -0.23973E-07  1137   0.710E-04    0.329E-03
RMM:  30    -0.503487213464E+03   -0.22057E-04   -0.29293E-07  1186   0.671E-04    0.294E-03
RMM:  31    -0.503487223708E+03   -0.10244E-04   -0.15909E-07  1107   0.585E-04    0.174E-03
RMM:  32    -0.503487231362E+03   -0.76545E-05   -0.21643E-07  1111   0.522E-04    0.211E-03
RMM:  33    -0.503487231637E+03   -0.27426E-06   -0.11402E-07  1056   0.501E-04
  14 F= -.53775334E+03 E0= -.53775983E+03  d E =-.929627E-02  mag=    96.5308
       N       E                     dE             d eps       ncg     rms          rms(c)
DAV:   1    -0.503483351409E+03    0.38800E-02   -0.12172E+00  2152   0.136E+00    0.406E-01
RMM:   2    -0.503488171556E+03   -0.48201E-02   -0.17785E-02  2101   0.317E-01    0.799E-01
RMM:   3    -0.503491185069E+03   -0.30135E-02   -0.83477E-03  2161   0.184E-01    0.117E+00
RMM:   4    -0.503490044860E+03    0.11402E-02   -0.30194E-03  2100   0.112E-01    0.903E-01
RMM:   5    -0.503486878050E+03    0.31668E-02   -0.12242E-03  2101   0.725E-02    0.336E-01
RMM:   6    -0.503486572421E+03    0.30563E-03   -0.32429E-04  2100   0.372E-02    0.124E-01
RMM:   7    -0.503486570126E+03    0.22945E-05   -0.10361E-04  2100   0.206E-02    0.130E-01
RMM:   8    -0.503486516970E+03    0.53156E-04   -0.74368E-05  2099   0.170E-02    0.105E-01
RMM:   9    -0.503486506694E+03    0.10276E-04   -0.74502E-05  2100   0.173E-02    0.105E-01
RMM:  10    -0.503486525924E+03   -0.19230E-04   -0.11692E-04  2097   0.206E-02    0.146E-01
RMM:  11    -0.503486454173E+03    0.71751E-04   -0.75765E-05  2102   0.175E-02    0.576E-02
RMM:  12    -0.503486446473E+03    0.76998E-05   -0.19872E-05  2096   0.889E-03    0.353E-02
RMM:  13    -0.503486443741E+03    0.27318E-05   -0.58259E-06  1803   0.485E-03    0.230E-02
RMM:  14    -0.503486442387E+03    0.13536E-05   -0.21836E-06  1385   0.345E-03    0.141E-02
RMM:  15    -0.503486441295E+03    0.10928E-05   -0.10345E-06  1166   0.232E-03    0.107E-02
RMM:  16    -0.503486441541E+03   -0.24651E-06   -0.80954E-07  1155   0.203E-03
  15 F= -.53775441E+03 E0= -.53776090E+03  d E =-.103704E-01  mag=    96.5317
       N       E                     dE             d eps       ncg     rms          rms(c)
DAV:   1    -0.503470197262E+03    0.16244E-01   -0.46992E+00  2104   0.263E+00    0.767E-01
RMM:   2    -0.503492774788E+03   -0.22578E-01   -0.75321E-02  2100   0.640E-01    0.186E+00
RMM:   3    -0.503498760556E+03   -0.59858E-02   -0.29596E-02  2204   0.341E-01    0.213E+00
RMM:   4    -0.503498798341E+03   -0.37784E-04   -0.11103E-02  2103   0.208E-01    0.200E+00
RMM:   5    -0.503483549121E+03    0.15249E-01   -0.58674E-03  2100   0.159E-01    0.618E-01
RMM:   6    -0.503482574816E+03    0.97430E-03   -0.13889E-03  2100   0.765E-02    0.259E-01
RMM:   7    -0.503482574251E+03    0.56485E-06   -0.44633E-04  2101   0.422E-02    0.287E-01
RMM:   8    -0.503482309959E+03    0.26429E-03   -0.34375E-04  2103   0.365E-02    0.204E-01
RMM:   9    -0.503482285846E+03    0.24113E-04   -0.34526E-04  2103   0.370E-02    0.222E-01
RMM:  10    -0.503482323934E+03   -0.38088E-04   -0.46933E-04  2102   0.412E-02    0.277E-01
RMM:  11    -0.503482088221E+03    0.23571E-03   -0.29370E-04  2103   0.345E-02    0.120E-01
RMM:  12    -0.503482055408E+03    0.32812E-04   -0.86308E-05  2103   0.183E-02    0.753E-02
RMM:  13    -0.503482045514E+03    0.98939E-05   -0.28342E-05  2096   0.107E-02    0.430E-02
RMM:  14    -0.503482045474E+03    0.40440E-07   -0.10874E-05  2044   0.675E-03    0.374E-02
RMM:  15    -0.503482043372E+03    0.21024E-05   -0.59665E-06  1864   0.495E-03    0.250E-02
RMM:  16    -0.503482048150E+03   -0.47789E-05   -0.43404E-06  1710   0.434E-03    0.206E-02
RMM:  17    -0.503482057854E+03   -0.97035E-05   -0.34658E-06  1544   0.374E-03    0.151E-02
RMM:  18    -0.503482069628E+03   -0.11774E-04   -0.25882E-06  1312   0.349E-03    0.138E-02
RMM:  19    -0.503482082880E+03   -0.13252E-04   -0.16223E-06  1192   0.288E-03    0.107E-02
RMM:  20    -0.503482093101E+03   -0.10222E-04   -0.87349E-07  1174   0.215E-03    0.848E-03
RMM:  21    -0.503482107370E+03   -0.14268E-04   -0.43837E-07  1182   0.151E-03    0.625E-03
RMM:  22    -0.503482117572E+03   -0.10203E-04   -0.21140E-07  1166   0.106E-03    0.477E-03
RMM:  23    -0.503482137453E+03   -0.19881E-04   -0.17016E-07  1188   0.808E-04    0.396E-03
RMM:  24    -0.503482151681E+03   -0.14228E-04   -0.10960E-07  1167   0.681E-04    0.340E-03
RMM:  25    -0.503482183022E+03   -0.31341E-04   -0.21803E-07  1204   0.680E-04    0.445E-03
RMM:  26    -0.503482209053E+03   -0.26031E-04   -0.19943E-07  1177   0.728E-04    0.319E-03
RMM:  27    -0.503482237199E+03   -0.28146E-04   -0.23296E-07  1174   0.674E-04    0.368E-03
RMM:  28    -0.503482268616E+03   -0.31417E-04   -0.31969E-07  1216   0.720E-04    0.224E-03
RMM:  29    -0.503482286408E+03   -0.17792E-04   -0.18803E-07  1109   0.602E-04    0.287E-03
RMM:  30    -0.503482305030E+03   -0.18623E-04   -0.25306E-07  1162   0.619E-04    0.235E-03
RMM:  31    -0.503482312017E+03   -0.69864E-05   -0.10747E-07  1024   0.496E-04    0.177E-03
RMM:  32    -0.503482318152E+03   -0.61349E-05   -0.14835E-07  1047   0.462E-04    0.187E-03
RMM:  33    -0.503482318773E+03   -0.62172E-06   -0.98903E-08   990   0.432E-04
  16 F= -.53775764E+03 E0= -.53776423E+03  d E =-.322295E-02  mag=    96.5330
       N       E                     dE             d eps       ncg     rms          rms(c)
DAV:   1    -0.503483434982E+03   -0.11168E-02   -0.15268E-01  2176   0.474E-01    0.137E-01
RMM:   2    -0.503484113232E+03   -0.67825E-03   -0.23493E-03  2100   0.113E-01    0.321E-01
RMM:   3    -0.503484349126E+03   -0.23589E-03   -0.95372E-04  2202   0.612E-02    0.381E-01
RMM:   4    -0.503484318107E+03    0.31019E-04   -0.35395E-04  2102   0.374E-02    0.351E-01
RMM:   5    -0.503483860063E+03    0.45804E-03   -0.17515E-04  2101   0.274E-02    0.112E-01
RMM:   6    -0.503483831717E+03    0.28345E-04   -0.42544E-05  2096   0.134E-02    0.443E-02
RMM:   7    -0.503483832410E+03   -0.69285E-06   -0.14042E-05  2078   0.752E-03    0.507E-02
RMM:   8    -0.503483822911E+03    0.94987E-05   -0.11142E-05  2092   0.650E-03    0.367E-02
RMM:   9    -0.503483821095E+03    0.18164E-05   -0.11178E-05  2075   0.666E-03    0.385E-02
RMM:  10    -0.503483820069E+03    0.10257E-05   -0.15476E-05  2096   0.751E-03    0.526E-02
RMM:  11    -0.503483809856E+03    0.10213E-04   -0.91174E-06  1935   0.617E-03    0.194E-02
RMM:  12    -0.503483809155E+03    0.70115E-06   -0.20945E-06  1354   0.322E-03
  17 F= -.53775780E+03 E0= -.53776437E+03  d E =-.338193E-02  mag=    96.5332
       N       E                     dE             d eps       ncg     rms          rms(c)
DAV:   1    -0.503469536712E+03    0.14273E-01   -0.31822E+00  2120   0.218E+00    0.664E-01
RMM:   2    -0.503491263165E+03   -0.21726E-01   -0.55147E-02  2100   0.554E-01    0.203E+00
RMM:   3    -0.503486205455E+03    0.50577E-02   -0.22060E-02  2195   0.298E-01    0.154E+00
RMM:   4    -0.503492486792E+03   -0.62813E-02   -0.83982E-03  2100   0.180E-01    0.186E+00
RMM:   5    -0.503479029859E+03    0.13457E-01   -0.45455E-03  2101   0.141E-01    0.598E-01
RMM:   6    -0.503478144386E+03    0.88547E-03   -0.10874E-03  2100   0.679E-02    0.216E-01
RMM:   7    -0.503478119903E+03    0.24483E-04   -0.28338E-04  2100   0.339E-02    0.216E-01
RMM:   8    -0.503477977621E+03    0.14228E-03   -0.20504E-04  2105   0.284E-02    0.172E-01
RMM:   9    -0.503477920029E+03    0.57593E-04   -0.21230E-04  2101   0.290E-02    0.162E-01
RMM:  10    -0.503477961330E+03   -0.41301E-04   -0.32208E-04  2100   0.341E-02    0.235E-01
RMM:  11    -0.503477784231E+03    0.17710E-03   -0.22599E-04  2102   0.300E-02    0.119E-01
RMM:  12    -0.503477744116E+03    0.40115E-04   -0.71735E-05  2104   0.167E-02    0.656E-02
RMM:  13    -0.503477734939E+03    0.91774E-05   -0.21305E-05  2096   0.927E-03    0.375E-02
RMM:  14    -0.503477732108E+03    0.28314E-05   -0.74841E-06  1879   0.561E-03    0.315E-02
RMM:  15    -0.503477728329E+03    0.37783E-05   -0.36939E-06  1659   0.421E-03    0.169E-02
RMM:  16    -0.503477729730E+03   -0.14012E-05   -0.26240E-06  1425   0.342E-03    0.184E-02
RMM:  17    -0.503477732621E+03   -0.28905E-05   -0.25745E-06  1271   0.339E-03    0.122E-02
RMM:  18    -0.503477738005E+03   -0.53839E-05   -0.20148E-06  1211   0.314E-03    0.134E-02
RMM:  19    -0.503477746166E+03   -0.81616E-05   -0.14912E-06  1195   0.270E-03    0.116E-02
RMM:  20    -0.503477750820E+03   -0.46538E-05   -0.74514E-07  1159   0.205E-03    0.510E-03
RMM:  21    -0.503477759560E+03   -0.87399E-05   -0.28551E-07  1168   0.118E-03    0.593E-03
RMM:  22    -0.503477766396E+03   -0.68357E-05   -0.16267E-07  1158   0.974E-04    0.317E-03
RMM:  23    -0.503477776339E+03   -0.99436E-05   -0.83765E-08  1155   0.584E-04    0.324E-03
RMM:  24    -0.503477785529E+03   -0.91891E-05   -0.62671E-08  1080   0.530E-04    0.251E-03
RMM:  25    -0.503477798119E+03   -0.12590E-04   -0.67455E-08  1050   0.458E-04    0.276E-03
RMM:  26    -0.503477817679E+03   -0.19561E-04   -0.11260E-07  1143   0.508E-04    0.218E-03
RMM:  27    -0.503477833406E+03   -0.15727E-04   -0.92031E-08  1109   0.487E-04    0.235E-03
RMM:  28    -0.503477851603E+03   -0.18196E-04   -0.11006E-07  1019   0.466E-04    0.205E-03
RMM:  29    -0.503477862473E+03   -0.10870E-04   -0.64474E-08   939   0.412E-04    0.170E-03
RMM:  30    -0.503477879614E+03   -0.17141E-04   -0.13085E-07  1021   0.422E-04    0.163E-03
RMM:  31    -0.503477888037E+03   -0.84228E-05   -0.64876E-08   951   0.386E-04    0.113E-03
RMM:  32    -0.503477898842E+03   -0.10805E-04   -0.11376E-07   954   0.388E-04    0.134E-03
RMM:  33    -0.503477903257E+03   -0.44154E-05   -0.62452E-08   859   0.359E-04    0.719E-04
RMM:  34    -0.503477905154E+03   -0.18974E-05   -0.70919E-08   750   0.323E-04    0.870E-04
RMM:  35    -0.503477904477E+03    0.67755E-06   -0.23726E-08   619   0.288E-04
  18 F= -.53776014E+03 E0= -.53776675E+03  d E =-.233982E-02  mag=    96.5353
