 vasp.5.4.4.18Apr17-6-g9f103f2a35 (build Jun 19 2019 11:58:18) complex          
  
 executed on             LinuxIFC date 2022.03.01  17:19:12
 running on   64 total cores
 distrk:  each k-point on   64 cores,    1 groups
 distr:  one band on NCORES_PER_BAND=  16 cores,    4 groups


--------------------------------------------------------------------------------------------------------


 INCAR:
 POTCAR:    PAW_PBE Pt 04Feb2005                  
 POTCAR:    PAW_PBE Pd 04Jan2005                  
 POTCAR:    PAW_PBE Ni 02Aug2007                  
 POTCAR:    PAW_PBE Co 02Aug2007                  
 POTCAR:    PAW_PBE Fe 06Sep2000                  
 POTCAR:    PAW_PBE Pt 04Feb2005                  
   VRHFIN =Pt: s1d9                                                             
   LEXCH  = PE                                                                  
   EATOM  =   729.1176 eV,   53.5886 Ry                                         
                                                                                
   TITEL  = PAW_PBE Pt 04Feb2005                                                
   LULTRA =        F    use ultrasoft PP ?                                      
   IUNSCR =        1    unscreen: 0-lin 1-nonlin 2-no                           
   RPACOR =    2.330    partial core radius                                     
   POMASS =  195.080; ZVAL   =   10.000    mass and valenz                      
   RCORE  =    2.600    outmost cutoff radius                                   
   RWIGS  =    2.750; RWIGS  =    1.455    wigner-seitz radius (au A)           
   ENMAX  =  230.283; ENMIN  =  172.712 eV                                      
   ICORE  =        3    local potential                                         
   LCOR   =        T    correct aug charges                                     
   LPAW   =        T    paw PP                                                  
   EAUG   =  358.966                                                            
   DEXC   =    0.000                                                            
   RMAX   =    2.658    core radius for proj-oper                               
   RAUG   =    1.300    factor for augmentation sphere                          
   RDEP   =    2.761    radius for radial grids                                 
   RDEPT  =    2.203    core radius for aug-charge                              
                                                                                
   Atomic configuration                                                         
   16 entries                                                                   
     n  l   j            E        occ.                                          
     1  0  0.50    -78401.1885   2.0000                                         
     2  0  0.50    -13770.7750   2.0000                                         
     2  1  1.50    -11931.0468   6.0000                                         
     3  0  0.50     -3234.7234   2.0000                                         
     3  1  1.50     -2699.2216   6.0000                                         
     3  2  2.50     -2119.5714  10.0000                                         
     4  0  0.50      -695.1528   2.0000                                         
     4  1  1.50      -519.6034   6.0000                                         
     4  2  2.50      -306.6786  10.0000                                         
     4  3  3.50       -70.1041  14.0000                                         
     5  0  0.50      -101.7747   2.0000                                         
     5  1  1.50       -55.9873   6.0000                                         
     5  2  2.50        -6.1423   9.0000                                         
     6  0  0.50        -5.6573   1.0000                                         
     6  1  1.50        -6.8029   0.0000                                         
     5  3  2.50        -1.3606   0.0000                                         
   Description                                                                  
     l       E           TYP  RCUT    TYP  RCUT                                 
     2     -6.1423404     23  2.500                                             
     2     -7.5029230     23  2.500                                             
     0     -5.6573207     23  2.500                                             
     0      0.7416693     23  2.500                                             
     1     -2.7211652     23  2.600                                             
     1     20.4087390     23  2.600                                             
     3     -1.3605826     23  2.500                                             
  local pseudopotential read in
  partial core-charges read in
  partial kinetic energy density read in
  atomic valenz-charges read in
  non local Contribution for L=           2  read in
    real space projection operators read in
  non local Contribution for L=           2  read in
    real space projection operators read in
  non local Contribution for L=           0  read in
    real space projection operators read in
  non local Contribution for L=           0  read in
    real space projection operators read in
  non local Contribution for L=           1  read in
    real space projection operators read in
  non local Contribution for L=           1  read in
    real space projection operators read in
    PAW grid and wavefunctions read in
 
   number of l-projection  operators is LMAX  =           6
   number of lm-projection operators is LMMAX =          18
 
 POTCAR:    PAW_PBE Pd 04Jan2005                  
   VRHFIN =Pd : s1 d9                                                           
   LEXCH  = PE                                                                  
   EATOM  =   809.7530 eV,   59.5152 Ry                                         
                                                                                
   TITEL  = PAW_PBE Pd 04Jan2005                                                
   LULTRA =        F    use ultrasoft PP ?                                      
   IUNSCR =        1    unscreen: 0-lin 1-nonlin 2-no                           
   RPACOR =    2.000    partial core radius                                     
   POMASS =  106.420; ZVAL   =   10.000    mass and valenz                      
   RCORE  =    2.600    outmost cutoff radius                                   
   RWIGS  =    2.710; RWIGS  =    1.434    wigner-seitz radius (au A)           
   ENMAX  =  250.925; ENMIN  =  188.194 eV                                      
   ICORE  =        3    local potential                                         
   LCOR   =        T    correct aug charges                                     
   LPAW   =        T    paw PP                                                  
   EAUG   =  416.230                                                            
   DEXC   =    0.000                                                            
   RMAX   =    2.653    core radius for proj-oper                               
   RAUG   =    1.300    factor for augmentation sphere                          
   RDEP   =    2.734    radius for radial grids                                 
   RDEPT  =    2.103    core radius for aug-charge                              
                                                                                
   Atomic configuration                                                         
   12 entries                                                                   
     n  l   j            E        occ.                                          
     1  0  0.50    -24164.6631   2.0000                                         
     2  0  0.50     -3530.9218   2.0000                                         
     2  1  1.50     -3165.6822   6.0000                                         
     3  0  0.50      -639.4577   2.0000                                         
     3  1  1.50      -519.4532   6.0000                                         
     3  2  2.50      -328.9757  10.0000                                         
     4  0  0.50       -88.7014   2.0000                                         
     4  1  1.50       -54.4540   6.0000                                         
     4  2  2.50        -6.6878   9.0000                                         
     5  0  0.50        -4.3543   1.0000                                         
     5  1  0.50        -1.3606   0.0000                                         
     4  3  2.50        -1.3606   0.0000                                         
   Description                                                                  
     l       E           TYP  RCUT    TYP  RCUT                                 
     2     -6.6878251     23  2.400                                             
     2     -8.0484077     23  2.400                                             
     0     -4.3542939     23  2.400                                             
     0      4.3406793     23  2.400                                             
     1     -4.0817478     23  2.600                                             
     1     15.8380318     23  2.600                                             
     3     -4.0817478     23  2.400                                             
  local pseudopotential read in
  partial core-charges read in
  partial kinetic energy density read in
  atomic valenz-charges read in
  non local Contribution for L=           2  read in
    real space projection operators read in
  non local Contribution for L=           2  read in
    real space projection operators read in
  non local Contribution for L=           0  read in
    real space projection operators read in
  non local Contribution for L=           0  read in
    real space projection operators read in
  non local Contribution for L=           1  read in
    real space projection operators read in
  non local Contribution for L=           1  read in
    real space projection operators read in
    PAW grid and wavefunctions read in
 
   number of l-projection  operators is LMAX  =           6
   number of lm-projection operators is LMMAX =          18
 
 POTCAR:    PAW_PBE Ni 02Aug2007                  
   VRHFIN =Ni:                                                                  
   LEXCH  = PE                                                                  
   EATOM  =  1077.6739 eV,   79.2068 Ry                                         
                                                                                
   TITEL  = PAW_PBE Ni 02Aug2007                                                
   LULTRA =        F    use ultrasoft PP ?                                      
   IUNSCR =        1    unscreen: 0-lin 1-nonlin 2-no                           
   RPACOR =    2.000    partial core radius                                     
   POMASS =   58.690; ZVAL   =   10.000    mass and valenz                      
   RCORE  =    2.300    outmost cutoff radius                                   
   RWIGS  =    2.430; RWIGS  =    1.286    wigner-seitz radius (au A)           
   ENMAX  =  269.532; ENMIN  =  202.149 eV                                      
   RCLOC  =    1.201    cutoff for local pot                                    
   LCOR   =        T    correct aug charges                                     
   LPAW   =        T    paw PP                                                  
   EAUG   =  544.565                                                            
   DEXC   =    0.000                                                            
   RMAX   =    2.357    core radius for proj-oper                               
   RAUG   =    1.300    factor for augmentation sphere                          
   RDEP   =    2.390    radius for radial grids                                 
   RDEPT  =    1.838    core radius for aug-charge                              
                                                                                
   Atomic configuration                                                         
    9 entries                                                                   
     n  l   j            E        occ.                                          
     1  0  0.50     -8206.4253   2.0000                                         
     2  0  0.50      -976.1748   2.0000                                         
     2  1  1.50      -839.0571   6.0000                                         
     3  0  0.50      -105.9991   2.0000                                         
     3  1  1.50       -66.4603   6.0000                                         
     3  2  2.50        -4.6458   9.0000                                         
     4  0  0.50        -4.4926   1.0000                                         
     4  1  1.50        -4.0817   0.0000                                         
     4  3  2.50        -1.3606   0.0000                                         
   Description                                                                  
     l       E           TYP  RCUT    TYP  RCUT                                 
     2     -4.6457903     23  2.300                                             
     2     -6.0063729     23  2.300                                             
     0     -4.4925590     23  2.300                                             
     0      5.0102601     23  2.300                                             
     1     -2.7211652     23  2.300                                             
     1     16.5183231     23  2.300                                             
  local pseudopotential read in
  partial core-charges read in
  partial kinetic energy density read in
  atomic valenz-charges read in
  non local Contribution for L=           2  read in
    real space projection operators read in
  non local Contribution for L=           2  read in
    real space projection operators read in
  non local Contribution for L=           0  read in
    real space projection operators read in
  non local Contribution for L=           0  read in
    real space projection operators read in
  non local Contribution for L=           1  read in
    real space projection operators read in
  non local Contribution for L=           1  read in
    real space projection operators read in
    PAW grid and wavefunctions read in
 
   number of l-projection  operators is LMAX  =           6
   number of lm-projection operators is LMMAX =          18
 
 POTCAR:    PAW_PBE Co 02Aug2007                  
   VRHFIN =Co: d8 s1                                                            
   LEXCH  = PE                                                                  
   EATOM  =   813.3670 eV,   59.7808 Ry                                         
                                                                                
   TITEL  = PAW_PBE Co 02Aug2007                                                
   LULTRA =        F    use ultrasoft PP ?                                      
   IUNSCR =        1    unscreen: 0-lin 1-nonlin 2-no                           
   RPACOR =    2.000    partial core radius                                     
   POMASS =   58.933; ZVAL   =    9.000    mass and valenz                      
   RCORE  =    2.300    outmost cutoff radius                                   
   RWIGS  =    2.460; RWIGS  =    1.302    wigner-seitz radius (au A)           
   ENMAX  =  267.968; ENMIN  =  200.976 eV                                      
   RCLOC  =    1.203    cutoff for local pot                                    
   LCOR   =        T    correct aug charges                                     
   LPAW   =        T    paw PP                                                  
   EAUG   =  477.818                                                            
   DEXC   =    0.000                                                            
   RMAX   =    2.360    core radius for proj-oper                               
   RAUG   =    1.300    factor for augmentation sphere                          
   RDEP   =    2.393    radius for radial grids                                 
   RDEPT  =    1.864    core radius for aug-charge                              
                                                                                
   Atomic configuration                                                         
    9 entries                                                                   
     n  l   j            E        occ.                                          
     1  0  0.50     -7587.6674   2.0000                                         
     2  0  0.50      -893.6084   2.0000                                         
     2  1  1.50      -764.5805   6.0000                                         
     3  0  0.50       -97.5973   2.0000                                         
     3  1  1.50       -60.9648   6.0000                                         
     3  2  2.50        -4.2382   8.0000                                         
     4  0  0.50        -4.3746   1.0000                                         
     4  1  1.50        -4.0817   0.0000                                         
     4  3  2.50        -1.3606   0.0000                                         
   Description                                                                  
     l       E           TYP  RCUT    TYP  RCUT                                 
     2     -4.2382362     23  2.300                                             
     2     -5.5988188     23  2.300                                             
     0     -4.3745797     23  2.300                                             
     0      5.7660125     23  2.300                                             
     1     -2.7211652     23  2.300                                             
     1     16.9860234     23  2.300                                             
  local pseudopotential read in
  partial core-charges read in
  partial kinetic energy density read in
  atomic valenz-charges read in
  non local Contribution for L=           2  read in
    real space projection operators read in
  non local Contribution for L=           2  read in
    real space projection operators read in
  non local Contribution for L=           0  read in
    real space projection operators read in
  non local Contribution for L=           0  read in
    real space projection operators read in
  non local Contribution for L=           1  read in
    real space projection operators read in
  non local Contribution for L=           1  read in
    real space projection operators read in
    PAW grid and wavefunctions read in
 
   number of l-projection  operators is LMAX  =           6
   number of lm-projection operators is LMMAX =          18
 
 POTCAR:    PAW_PBE Fe 06Sep2000                  
   VRHFIN =Fe:  d7 s1                                                           
   LEXCH  = PE                                                                  
   EATOM  =   594.3153 eV,   43.6809 Ry                                         
                                                                                
   TITEL  = PAW_PBE Fe 06Sep2000                                                
   LULTRA =        F    use ultrasoft PP ?                                      
   IUNSCR =        1    unscreen: 0-lin 1-nonlin 2-no                           
   RPACOR =    2.000    partial core radius                                     
   POMASS =   55.847; ZVAL   =    8.000    mass and valenz                      
   RCORE  =    2.300    outmost cutoff radius                                   
   RWIGS  =    2.460; RWIGS  =    1.302    wigner-seitz radius (au A)           
   ENMAX  =  267.882; ENMIN  =  200.911 eV                                      
   RCLOC  =    1.701    cutoff for local pot                                    
   LCOR   =        T    correct aug charges                                     
   LPAW   =        T    paw PP                                                  
   EAUG   =  511.368                                                            
   DEXC   =    0.000                                                            
   RMAX   =    2.356    core radius for proj-oper                               
   RAUG   =    1.300    factor for augmentation sphere                          
   RDEP   =    2.442    radius for radial grids                                 
   RDEPT  =    1.890    core radius for aug-charge                              
                                                                                
   Atomic configuration                                                         
    9 entries                                                                   
     n  l   j            E        occ.                                          
     1  0  0.50     -6993.8440   2.0000                                         
     2  0  0.50      -814.6047   2.0000                                         
     2  1  1.50      -693.3689   6.0000                                         
     3  0  0.50       -89.4732   2.0000                                         
     3  1  1.50       -55.6373   6.0000                                         
     3  2  2.50        -3.8151   7.0000                                         
     4  0  0.50        -4.2551   1.0000                                         
     4  1  1.50        -3.4015   0.0000                                         
     4  3  2.50        -1.3606   0.0000                                         
   Description                                                                  
     l       E           TYP  RCUT    TYP  RCUT                                 
     2     -3.8151135     23  2.300                                             
     2     -5.1756961     23  2.300                                             
     0     -4.2550963     23  2.300                                             
     0      7.2035603     23  2.300                                             
     1     -2.7211652     23  2.300                                             
     1     18.4316424     23  2.300                                             
  local pseudopotential read in
  partial core-charges read in
  partial kinetic energy density read in
  atomic valenz-charges read in
  non local Contribution for L=           2  read in
    real space projection operators read in
  non local Contribution for L=           2  read in
    real space projection operators read in
  non local Contribution for L=           0  read in
    real space projection operators read in
  non local Contribution for L=           0  read in
    real space projection operators read in
  non local Contribution for L=           1  read in
    real space projection operators read in
  non local Contribution for L=           1  read in
    real space projection operators read in
    PAW grid and wavefunctions read in
 
   number of l-projection  operators is LMAX  =           6
   number of lm-projection operators is LMMAX =          18
 
 Optimization of the real space projectors (new method)

 maximal supplied QI-value         = 14.36
 optimisation between [QCUT,QGAM] = [ 11.35, 22.84] = [ 36.05,146.02] Ry 
 Optimized for a Real-space Cutoff    1.52 Angstroem

   l    n(q)    QCUT    max X(q) W(low)/X(q) W(high)/X(q)  e(spline) 
   2      9    11.346    66.195    0.18E-03    0.31E-04    0.24E-06
   2      9    11.346    64.643    0.18E-03    0.31E-04    0.25E-06
   0     10    11.346    95.520    0.43E-04    0.40E-05    0.18E-06
   0     10    11.346    63.403    0.42E-04    0.39E-05    0.17E-06
   1     10    11.346    19.961    0.83E-04    0.43E-04    0.12E-06
   1     10    11.346    13.289    0.69E-04    0.37E-04    0.98E-07
 Optimization of the real space projectors (new method)

 maximal supplied QI-value         = 14.36
 optimisation between [QCUT,QGAM] = [ 11.35, 22.84] = [ 36.05,146.02] Ry 
 Optimized for a Real-space Cutoff    1.47 Angstroem

   l    n(q)    QCUT    max X(q) W(low)/X(q) W(high)/X(q)  e(spline) 
   2      9    11.346    59.108    0.74E-04    0.81E-04    0.26E-06
   2      9    11.346    58.101    0.74E-04    0.83E-04    0.27E-06
   0     10    11.346   102.235    0.26E-04    0.31E-04    0.16E-06
   0     10    11.346    58.388    0.23E-04    0.29E-04    0.15E-06
   1     10    11.346    22.191    0.23E-03    0.26E-03    0.14E-06
   1     10    11.346    15.590    0.19E-03    0.22E-03    0.12E-06
 Optimization of the real space projectors (new method)

 maximal supplied QI-value         = 16.25
 optimisation between [QCUT,QGAM] = [ 11.38, 22.75] = [ 36.24,144.96] Ry 
 Optimized for a Real-space Cutoff    1.47 Angstroem

   l    n(q)    QCUT    max X(q) W(low)/X(q) W(high)/X(q)  e(spline) 
   2      9    11.376    60.317    0.17E-03    0.16E-04    0.16E-06
   2      9    11.376    55.921    0.17E-03    0.16E-04    0.17E-06
   0     10    11.376    51.690    0.45E-04    0.60E-04    0.21E-06
   0     10    11.376    30.015    0.37E-04    0.55E-04    0.19E-06
   1     10    11.376    18.849    0.83E-04    0.11E-03    0.92E-07
   1     10    11.376    14.624    0.69E-04    0.92E-04    0.82E-07
 Optimization of the real space projectors (new method)

 maximal supplied QI-value         = 16.25
 optimisation between [QCUT,QGAM] = [ 11.38, 22.75] = [ 36.24,144.96] Ry 
 Optimized for a Real-space Cutoff    1.43 Angstroem

   l    n(q)    QCUT    max X(q) W(low)/X(q) W(high)/X(q)  e(spline) 
   2      9    11.376    65.824    0.18E-03    0.28E-04    0.14E-06
   2      9    11.376    61.429    0.18E-03    0.29E-04    0.14E-06
   0     10    11.376    56.174    0.51E-04    0.12E-03    0.20E-06
   0     10    11.376    31.263    0.46E-04    0.11E-03    0.18E-06
   1      9    11.376    19.828    0.23E-03    0.17E-03    0.10E-06
   1      9    11.376    15.139    0.20E-03    0.14E-03    0.89E-07
 Optimization of the real space projectors (new method)

 maximal supplied QI-value         = 16.25
 optimisation between [QCUT,QGAM] = [ 11.38, 22.75] = [ 36.24,144.96] Ry 
 Optimized for a Real-space Cutoff    1.52 Angstroem

   l    n(q)    QCUT    max X(q) W(low)/X(q) W(high)/X(q)  e(spline) 
   2      9    11.376    80.901    0.22E-03    0.86E-04    0.27E-06
   2      9    11.376    75.754    0.23E-03    0.87E-04    0.27E-06
   0     10    11.376    58.752    0.56E-04    0.38E-04    0.25E-06
   0     10    11.376    30.679    0.47E-04    0.35E-04    0.23E-06
   1     10    11.376    17.977    0.50E-04    0.42E-04    0.12E-06
   1     10    11.376    13.559    0.42E-04    0.37E-04    0.11E-06
  PAW_PBE Pt 04Feb2005                  :
 energy of atom  1       EATOM= -729.1176
 kinetic energy error for atom=    0.0039 (will be added to EATOM!!)
  PAW_PBE Pd 04Jan2005                  :
 energy of atom  2       EATOM= -809.7530
 kinetic energy error for atom=    0.0049 (will be added to EATOM!!)
  PAW_PBE Ni 02Aug2007                  :
 energy of atom  3       EATOM=-1077.6739
 kinetic energy error for atom=    0.0030 (will be added to EATOM!!)
  PAW_PBE Co 02Aug2007                  :
 energy of atom  4       EATOM= -813.3670
 kinetic energy error for atom=    0.0028 (will be added to EATOM!!)
  PAW_PBE Fe 06Sep2000                  :
 energy of atom  5       EATOM= -594.3153
 kinetic energy error for atom=    0.0026 (will be added to EATOM!!)
 
 
 POSCAR: Pt   Pd   Ni   Co   Fe                  
  positions in direct lattice
  No initial velocities read in
 exchange correlation table for  LEXCH =        8
   RHO(1)=    0.500       N(1)  =     2000
   RHO(2)=  100.500       N(2)  =     4000
 


--------------------------------------------------------------------------------------------------------


 ion  position               nearest neighbor table
   1  0.942  0.037  0.468-  16 2.48  22 2.50  47 2.51  73 2.52  53 2.56  68 2.65   2 2.66  78 2.67
                            44 2.71
   2  0.845  0.112  0.374-  54 2.47  78 2.48  11 2.52  22 2.52  64 2.54  46 2.57  16 2.59  44 2.61
                            57 2.65  27 2.65   1 2.66   8 2.67
   3  0.432  0.777  0.188-  80 2.57  67 2.58  66 2.61   7 2.64  24 2.65  62 2.65  41 2.68  52 2.70
                            29 2.71  23 2.71  12 2.74  28 2.77
   4  0.857  0.118  0.093-  70 2.52  25 2.58  63 2.59  13 2.61  12 2.63  48 2.64  23 2.64  65 2.67
                            79 2.75
   5  0.099  0.615  0.093-  24 2.61  70 2.61  72 2.62  66 2.66  21 2.67  25 2.67  28 2.68   7 2.72
                            19 2.75
   6  0.110  0.618  0.377-  59 2.52  35 2.53  62 2.54  61 2.54   8 2.56  42 2.58  39 2.59  51 2.61
                            11 2.67  45 2.68  36 2.68  71 2.69
   7  0.183  0.788  0.190-  49 2.51  34 2.55  36 2.61  62 2.62  52 2.62   3 2.64  20 2.66  72 2.67
                            19 2.69  66 2.69   5 2.72  28 2.74
   8  0.103  0.368  0.377-  35 2.46  22 2.52  18 2.54  73 2.54  11 2.55   6 2.56  16 2.58  45 2.62
                            43 2.65  59 2.66   2 2.67  57 2.68
   9  0.442  0.283  0.189-  52 2.49  58 2.51  38 2.54  31 2.55  17 2.55  40 2.57  67 2.58  34 2.61
                            60 2.61  69 2.62  14 2.62  32 2.75
  10  0.603  0.368  0.371-  33 2.53  40 2.55  17 2.57  71 2.57  75 2.59  30 2.62  37 2.63  18 2.65
                            11 2.65  54 2.70  76 2.75  26 2.78
  11  0.853  0.360  0.375-   2 2.52   8 2.55  27 2.58  54 2.60  16 2.61  45 2.64  10 2.65  61 2.65
                             6 2.67  71 2.68  76 2.68  33 2.72
  12  0.605  0.864  0.089-  63 2.55  50 2.57  24 2.61   4 2.63  80 2.64  28 2.69  79 2.72   3 2.74
                            23 2.77
  13  0.102  0.105  0.096-  72 2.44  34 2.53  63 2.55  65 2.58  60 2.59   4 2.61  14 2.64  70 2.67
                            32 2.70
  14  0.351  0.364  0.096-  31 2.56  60 2.56  67 2.58  24 2.59  70 2.60  32 2.61  50 2.61   9 2.62
                            13 2.64
  15  0.429  0.536  0.466-  35 2.49  59 2.50  18 2.51  56 2.54  73 2.59  68 2.62  37 2.67  75 2.70
                            26 2.70
  16  0.935  0.273  0.468-   1 2.48  73 2.51   8 2.58  78 2.58  35 2.59   2 2.59  11 2.61  76 2.66
                            61 2.76
  17  0.523  0.201  0.280-  58 2.48  29 2.51  27 2.52  33 2.53   9 2.55  52 2.56  10 2.57  40 2.59
                            30 2.66  49 2.67  69 2.68  54 2.68
  18  0.352  0.377  0.375-  15 2.51   8 2.54  59 2.56  43 2.59  73 2.60  75 2.64  10 2.65  40 2.68
                            26 2.69  22 2.70  69 2.71  30 2.75
  19  0.926  0.528  0.192-  33 2.50  58 2.52  45 2.59  36 2.61  38 2.63  48 2.63  66 2.64  25 2.65
                            21 2.68   7 2.69  20 2.71   5 2.75
  20  0.928  0.791  0.190-  80 2.51  55 2.52  65 2.55  63 2.59  74 2.60  34 2.61  38 2.63  36 2.65
                            21 2.66   7 2.66  72 2.71  19 2.71
  21  0.843  0.618  0.096-  50 2.49  63 2.53  38 2.62  31 2.64  72 2.64  20 2.66  25 2.66   5 2.67
                            19 2.68
  22  0.091  0.118  0.376-   1 2.50   8 2.52   2 2.52  73 2.57  44 2.60  57 2.61  55 2.66  51 2.67
                            47 2.69  18 2.70  69 2.70  30 2.76
  23  0.688  0.043  0.188-  58 2.53  48 2.56  27 2.58  52 2.60   4 2.64  79 2.64  80 2.65  65 2.67
                            29 2.69  46 2.69   3 2.71  12 2.77
  24  0.351  0.615  0.092-  14 2.59  50 2.61   5 2.61  12 2.61  70 2.62   3 2.65  66 2.68  67 2.69
                            28 2.72
  25  0.841  0.359  0.097-  79 2.52  31 2.55   4 2.58  58 2.60  19 2.65  48 2.66  70 2.66  21 2.66
                             5 2.67
  26  0.424  0.272  0.470-  77 2.55  47 2.55  73 2.56  30 2.60  76 2.65  18 2.69  15 2.70  37 2.71
                            10 2.78
  27  0.769  0.207  0.280-  58 2.49  17 2.52  33 2.54  45 2.56  11 2.58  23 2.58  48 2.60  57 2.60
                            29 2.63  54 2.64   2 2.65  46 2.70
  28  0.352  0.878  0.090-  60 2.48  79 2.52  72 2.56  52 2.67   5 2.68  12 2.69  24 2.72   7 2.74
                             3 2.77
  29  0.515  0.954  0.284-  54 2.51  17 2.51  39 2.53  49 2.57  62 2.59  64 2.61  27 2.63  52 2.64
                            23 2.69   3 2.71  46 2.73  41 2.75
  30  0.353  0.112  0.375-  77 2.56  39 2.58  26 2.60  54 2.62  10 2.62  51 2.63  49 2.64  47 2.66
                            17 2.66  69 2.71  18 2.75  22 2.76
  31  0.594  0.359  0.095-  79 2.45  60 2.46   9 2.55  25 2.55  14 2.56  50 2.62  21 2.64  58 2.66
                            38 2.70
  32  0.181  0.291  0.188-  48 2.43  66 2.44  65 2.48  43 2.54  70 2.54  57 2.57  67 2.57  69 2.60
                            14 2.61  34 2.67  13 2.70   9 2.75
  33  0.762  0.449  0.280-  74 2.45  40 2.48  19 2.50  58 2.50  10 2.53  17 2.53  27 2.54  38 2.57
                            71 2.60  36 2.62  45 2.71  11 2.72
  34  0.186  0.036  0.188-  65 2.53  13 2.53   7 2.55  69 2.56  52 2.57  49 2.58  55 2.59   9 2.61
                            20 2.61  60 2.65  72 2.66  32 2.67
  35  0.183  0.524  0.466-   8 2.46  73 2.49  15 2.49   6 2.53  59 2.56  16 2.59  56 2.60  61 2.61
                            42 2.72
  36  0.014  0.702  0.283-  74 2.48  71 2.52  55 2.54  51 2.56  49 2.56  62 2.60   7 2.61  19 2.61
                            33 2.62  20 2.65   6 2.68  45 2.68
  37  0.684  0.533  0.466-  75 2.58  53 2.59  71 2.60  61 2.62  10 2.63  68 2.65  15 2.67  76 2.70
                            26 2.71
  38  0.677  0.536  0.190-  67 2.47  40 2.47  50 2.53  80 2.54   9 2.54  74 2.57  33 2.57  21 2.62
                            20 2.63  19 2.63  58 2.64  31 2.70
  39  0.360  0.866  0.376-  59 2.47  64 2.47  56 2.48  54 2.52  29 2.53  77 2.57  62 2.57  30 2.58
                            42 2.58   6 2.59  49 2.71  51 2.72
  40  0.524  0.451  0.280-  38 2.47  33 2.48  41 2.50  74 2.51  10 2.55  67 2.57   9 2.57  17 2.59
                            75 2.63  69 2.65  43 2.66  18 2.68
  41  0.516  0.689  0.284-  40 2.50  75 2.51  43 2.56  59 2.58  67 2.61  74 2.63  64 2.65  62 2.67
                             3 2.68  80 2.69  46 2.70  29 2.75
  42  0.189  0.789  0.467-  77 2.48  56 2.50  47 2.50  61 2.56   6 2.58  39 2.58  51 2.59  53 2.65
                            35 2.72
  43  0.266  0.448  0.281-  45 2.52  32 2.54  69 2.55  41 2.56  57 2.58  66 2.58  18 2.59  67 2.61
                             8 2.65  62 2.65  40 2.66  59 2.73
  44  0.847  0.861  0.372-  75 2.45  46 2.52  74 2.54  68 2.55  71 2.55  51 2.58  53 2.58  22 2.60
                            64 2.60  55 2.61   2 2.61   1 2.71
  45  0.022  0.446  0.281-  57 2.51  43 2.52  66 2.55  27 2.56  48 2.57  19 2.59  62 2.61   8 2.62
                            11 2.64   6 2.68  36 2.68  33 2.71
  46  0.776  0.951  0.282-  44 2.52  55 2.52  57 2.54   2 2.57  65 2.60  80 2.65  74 2.67  64 2.67
                            23 2.69  27 2.70  41 2.70  29 2.73
  47  0.179  0.025  0.469-  42 2.50   1 2.51  53 2.53  26 2.55  77 2.57  51 2.61  73 2.65  30 2.66
                            22 2.69
  48  0.942  0.281  0.189-  32 2.43  65 2.46  66 2.51  57 2.51  23 2.56  70 2.57  45 2.57  27 2.60
                            19 2.63   4 2.64  25 2.66  58 2.69
  49  0.263  0.947  0.280-   7 2.51  62 2.53  55 2.55  36 2.56  29 2.57  34 2.58  52 2.62  69 2.62
                            51 2.63  30 2.64  17 2.67  39 2.71
  50  0.602  0.616  0.098-  21 2.49  38 2.53  80 2.53  67 2.56  12 2.57  63 2.59  24 2.61  14 2.61
                            31 2.62
  51  0.096  0.863  0.375-  53 2.54  71 2.55  36 2.56  44 2.58  42 2.59  55 2.61  47 2.61   6 2.61
                            30 2.63  49 2.63  22 2.67  39 2.72
  52  0.436  0.040  0.188-   9 2.49  17 2.56  58 2.56  79 2.56  34 2.57  60 2.57  23 2.60   7 2.62
                            49 2.62  29 2.64  28 2.67   3 2.70
  53  0.932  0.785  0.466-  47 2.53  51 2.54   1 2.56  61 2.56  44 2.58  37 2.59  68 2.60  71 2.62
                            42 2.65
  54  0.604  0.108  0.375-  78 2.43  64 2.46   2 2.47  29 2.51  39 2.52  76 2.60  11 2.60  30 2.62
                            27 2.64  77 2.66  17 2.68  10 2.70
  55  0.019  0.949  0.281-  20 2.52  46 2.52  36 2.54  49 2.55  65 2.56  69 2.58  34 2.59  44 2.61
                            51 2.61  57 2.61  74 2.64  22 2.66
  56  0.426  0.780  0.467-  59 2.48  39 2.48  42 2.50  15 2.54  77 2.56  64 2.59  35 2.60  68 2.62
                            78 2.62
  57  0.016  0.200  0.280-  65 2.47  48 2.51  45 2.51  46 2.54  32 2.57  69 2.57  43 2.58  27 2.60
                            22 2.61  55 2.61   2 2.65   8 2.68
  58  0.684  0.284  0.192-  17 2.48  27 2.49  33 2.50   9 2.51  19 2.52  23 2.53  52 2.56  25 2.60
                            38 2.64  31 2.66  79 2.67  48 2.69
  59  0.357  0.626  0.377-  39 2.47  56 2.48  15 2.50  64 2.51   6 2.52  18 2.56  35 2.56  41 2.58
                            62 2.62   8 2.66  75 2.67  43 2.73
  60  0.359  0.121  0.094-  79 2.43  31 2.46  28 2.48  14 2.56  52 2.57  13 2.59   9 2.61  72 2.65
                            34 2.65
  61  0.942  0.543  0.466-   6 2.54  53 2.56  42 2.56  71 2.61  35 2.61  37 2.62  11 2.65  16 2.76
                            76 2.80
  62  0.266  0.704  0.284-  49 2.53   6 2.54  39 2.57  29 2.59  36 2.60  45 2.61   7 2.62  59 2.62
                             3 2.65  43 2.65  41 2.67  66 2.71
  63  0.851  0.865  0.094-  21 2.53  12 2.55  13 2.55  72 2.57  50 2.59   4 2.59  20 2.59  80 2.59
                            65 2.75
  64  0.599  0.868  0.376-  78 2.45  54 2.46  39 2.47  68 2.48  59 2.51   2 2.54  56 2.59  44 2.60
                            75 2.61  29 2.61  41 2.65  46 2.67
  65  0.948  0.047  0.191-  48 2.46  57 2.47  32 2.48  34 2.53  20 2.55  55 2.56  13 2.58  46 2.60
                             4 2.67  23 2.67  80 2.74  63 2.75
  66  0.180  0.526  0.188-  32 2.44  48 2.51  45 2.55  43 2.58  70 2.59   3 2.61  19 2.64  67 2.64
                             5 2.66  24 2.68   7 2.69  62 2.71
  67  0.436  0.530  0.188-  38 2.47  50 2.56  40 2.57  32 2.57   3 2.58   9 2.58  14 2.58  80 2.60
                            43 2.61  41 2.61  66 2.64  24 2.69
  68  0.682  0.787  0.463-  64 2.48  78 2.51  44 2.55  75 2.55  53 2.60  56 2.62  15 2.62  37 2.65
                             1 2.65
  69  0.264  0.201  0.279-  43 2.55  34 2.56  57 2.57  55 2.58  32 2.60   9 2.62  49 2.62  40 2.65
                            17 2.68  22 2.70  18 2.71  30 2.71
  70  0.099  0.362  0.095-   4 2.52  32 2.54  48 2.57  66 2.59  14 2.60   5 2.61  24 2.62  25 2.66
                            13 2.67
  71  0.850  0.616  0.372-  74 2.44  75 2.50  36 2.52  44 2.55  51 2.55  10 2.57  37 2.60  33 2.60
                            61 2.61  53 2.62  11 2.68   6 2.69
  72  0.100  0.869  0.093-  13 2.44  28 2.56  63 2.57   5 2.62  21 2.64  60 2.65  34 2.66   7 2.67
                            20 2.71
  73  0.182  0.283  0.468-  35 2.49  16 2.51   1 2.52   8 2.54  26 2.56  22 2.57  15 2.59  18 2.60
                            47 2.65
  74  0.770  0.689  0.284-  71 2.44  33 2.45  75 2.46  36 2.48  40 2.51  44 2.54  38 2.57  20 2.60
                            41 2.63  55 2.64  46 2.67  80 2.77
  75  0.613  0.624  0.373-  44 2.45  74 2.46  71 2.50  41 2.51  68 2.55  37 2.58  10 2.59  64 2.61
                            40 2.63  18 2.64  59 2.67  15 2.70
  76  0.677  0.268  0.470-  78 2.50  77 2.54  54 2.60  26 2.65  16 2.66  11 2.68  37 2.70  10 2.75
                            61 2.80
  77  0.428  0.029  0.469-  42 2.48  76 2.54  26 2.55  56 2.56  30 2.56  47 2.57  39 2.57  78 2.63
                            54 2.66
  78  0.682  0.030  0.462-  54 2.43  64 2.45   2 2.48  76 2.50  68 2.51  16 2.58  56 2.62  77 2.63
                             1 2.67
  79  0.593  0.121  0.095-  60 2.43  31 2.45  28 2.52  25 2.52  52 2.56  23 2.64  58 2.67  12 2.72
                             4 2.75
  80  0.683  0.784  0.186-  20 2.51  50 2.53  38 2.54   3 2.57  63 2.59  67 2.60  12 2.64  23 2.65
                            46 2.65  41 2.69  65 2.74  74 2.77
 
  LATTYP: Found a triclinic cell.
 ALAT       =    10.3788326624
 B/A-ratio  =     0.9994273894
 C/A-ratio  =     2.2045847500
 COS(alpha) =     0.0014127824
 COS(beta)  =     0.0025357692
 COS(gamma) =     0.5024190358
  
  Lattice vectors:
  
 A1 = (  -8.9938124366,  -5.1798989336,  -0.0123420863)
 A2 = (  -8.9921851089,   5.1708264482,  -0.0003833359)
 A3 = (  -0.0359356605,   0.0006578715, -22.8809879814)


Analysis of symmetry for initial positions (statically):
=====================================================================
 Subroutine PRICEL returns:
 Original cell was already a primitive cell.
 

 Routine SETGRP: Setting up the symmetry group for a 
 triclinic supercell.


 Subroutine GETGRP returns: Found  1 space group operations
 (whereof  1 operations were pure point group operations)
 out of a pool of  2 trial point group operations.


The static configuration has the point symmetry C_1 .


Analysis of symmetry for dynamics (positions and initial velocities):
=====================================================================
 Subroutine PRICEL returns:
 Original cell was already a primitive cell.
 

 Routine SETGRP: Setting up the symmetry group for a 
 triclinic supercell.


 Subroutine GETGRP returns: Found  1 space group operations
 (whereof  1 operations were pure point group operations)
 out of a pool of  2 trial point group operations.


The dynamic configuration has the point symmetry C_1 .


Analysis of constrained symmetry for selective dynamics:
=====================================================================
 Subroutine PRICEL returns:
 Original cell was already a primitive cell.
 

 Routine SETGRP: Setting up the symmetry group for a 
 triclinic supercell.


 Subroutine GETGRP returns: Found  1 space group operations
 (whereof  1 operations were pure point group operations)
 out of a pool of  2 trial point group operations.


The constrained configuration has the point symmetry C_1 .


Analysis of structural, dynamic, and magnetic symmetry:
=====================================================================
 Subroutine PRICEL returns:
 Original cell was already a primitive cell.
 

 Routine SETGRP: Setting up the symmetry group for a 
 triclinic supercell.


 Subroutine GETGRP returns: Found  1 space group operations
 (whereof  1 operations were pure point group operations)
 out of a pool of  2 trial point group operations.


The magnetic configuration has the point symmetry C_1 .


 Subroutine INISYM returns: Found  1 space group operations
 (whereof  1 operations are pure point group operations),
 and found     1 'primitive' translations

 
 
 KPOINTS: Automatic mesh                          

Automatic generation of k-mesh.
Space group operators:
 irot       det(A)        alpha          n_x          n_y          n_z        tau_x        tau_y        tau_z
    1     1.000000     0.000001     1.000000     0.000000     0.000000     0.000000     0.000000     0.000000
 
 Subroutine IBZKPT returns following result:
 ===========================================
 
 Found      1 irreducible k-points:
 
 Following reciprocal coordinates:
            Coordinates               Weight
  0.000000  0.000000  0.000000      1.000000
 
 Following cartesian coordinates:
            Coordinates               Weight
  0.000000  0.000000  0.000000      1.000000
 


--------------------------------------------------------------------------------------------------------




 Dimension of arrays:
   k-points           NKPTS =      1   k-points in BZ     NKDIM =      1   number of bands    NBANDS=    524
   number of dos      NEDOS =    301   number of ions     NIONS =     80
   non local maximal  LDIM  =      6   non local SUM 2l+1 LMDIM =     18
   total plane-waves  NPLWV = ******
   max r-space proj   IRMAX =   7456   max aug-charges    IRDMAX=  30772
   dimension x,y,z NGX =    80 NGY =   80 NGZ =  168
   dimension x,y,z NGXF=   160 NGYF=  160 NGZF=  336
   support grid    NGXF=   160 NGYF=  160 NGZF=  336
   ions per type =              13  17  15  18  17
   NGX,Y,Z   is equivalent  to a cutoff of  12.82, 12.85, 12.21 a.u.
   NGXF,Y,Z  is equivalent  to a cutoff of  25.64, 25.70, 24.41 a.u.

 SYSTEM =  ML                                      
 POSCAR =  Pt   Pd   Ni   Co   Fe                  

 Startparameter for this run:
   NWRITE =      2    write-flag & timer
   PREC   = accura    normal or accurate (medium, high low for compatibility)
   ISTART =      0    job   : 0-new  1-cont  2-samecut
   ICHARG =      2    charge: 1-file 2-atom 10-const
   ISPIN  =      2    spin polarized calculation?
   LNONCOLLINEAR =      F non collinear calculations
   LSORBIT =      F    spin-orbit coupling
   INIWAV =      1    electr: 0-lowe 1-rand  2-diag
   LASPH  =      F    aspherical Exc in radial PAW
   METAGGA=      F    non-selfconsistent MetaGGA calc.

 Electronic Relaxation 1
   ENCUT  =  500.0 eV  36.75 Ry    6.06 a.u.  18.91 18.87 41.72*2*pi/ulx,y,z
   ENINI  =  500.0     initial cutoff
   ENAUG  =  544.6 eV  augmentation charge cutoff
   NELM   =    300;   NELMIN=  4; NELMDL= -5     # of ELM steps 
   EDIFF  = 0.1E-05   stopping-criterion for ELM
   LREAL  =      T    real-space projection
   NLSPLINE    = F    spline interpolate recip. space projectors
   LCOMPAT=      F    compatible to vasp.4.4
   GGA_COMPAT  = T    GGA compatible to vasp.4.4-vasp.4.6
   LMAXPAW     = -100 max onsite density
   LMAXMIX     =    2 max onsite mixed and CHGCAR
   VOSKOWN=      0    Vosko Wilk Nusair interpolation
   ROPT   =   -0.00025  -0.00025  -0.00025  -0.00025
   ROPT   =   -0.00025
 Ionic relaxation
   EDIFFG = -.5E-01   stopping-criterion for IOM
   NSW    =    300    number of steps for IOM
   NBLOCK =      1;   KBLOCK =    300    inner block; outer block 
   IBRION =      2    ionic relax: 0-MD 1-quasi-New 2-CG
   NFREE  =      1    steps in history (QN), initial steepest desc. (CG)
   ISIF   =      2    stress and relaxation
   IWAVPR =     11    prediction:  0-non 1-charg 2-wave 3-comb
   ISYM   =      2    0-nonsym 1-usesym 2-fastsym
   LCORR  =      T    Harris-Foulkes like correction to forces

   POTIM  = 0.5000    time-step for ionic-motion
   TEIN   =    0.0    initial temperature
   TEBEG  =    0.0;   TEEND  =   0.0 temperature during run
   SMASS  =  -3.00    Nose mass-parameter (am)
   estimated Nose-frequenzy (Omega)   =  0.10E-29 period in steps =****** mass=  -0.246E-26a.u.
   SCALEE = 1.0000    scale energy and forces
   NPACO  =    256;   APACO  = 16.0  distance and # of slots for P.C.
   PSTRESS=    0.0 pullay stress

  Mass of Ions in am
   POMASS = 195.08106.42 58.69 58.93 55.85
  Ionic Valenz
   ZVAL   =  10.00 10.00 10.00  9.00  8.00
  Atomic Wigner-Seitz radii
   RWIGS  =  -1.00 -1.00 -1.00 -1.00 -1.00
  virtual crystal weights 
   VCA    =   1.00  1.00  1.00  1.00  1.00
   NELECT =     748.0000    total number of electrons
   NUPDOWN=      -1.0000    fix difference up-down

 DOS related values:
   EMIN   =  10.00;   EMAX   =-10.00  energy-range for DOS
   EFERMI =   0.00
   ISMEAR =     1;   SIGMA  =   0.10  broadening in eV -4-tet -1-fermi 0-gaus

 Electronic relaxation 2 (details)
   IALGO  =     68    algorithm
   LDIAG  =      T    sub-space diagonalisation (order eigenvalues)
   LSUBROT=      F    optimize rotation matrix (better conditioning)
   TURBO    =      0    0=normal 1=particle mesh
   IRESTART =      0    0=no restart 2=restart with 2 vectors
   NREBOOT  =      0    no. of reboots
   NMIN     =      0    reboot dimension
   EREF     =   0.00    reference energy to select bands
   IMIX   =      4    mixing-type and parameters
     AMIX     =   0.40;   BMIX     =  1.00
     AMIX_MAG =   1.60;   BMIX_MAG =  1.00
     AMIN     =   0.10
     WC   =   100.;   INIMIX=   1;  MIXPRE=   1;  MAXMIX= -45

 Intra band minimization:
   WEIMIN = 0.0010     energy-eigenvalue tresh-hold
   EBREAK =  0.48E-09  absolut break condition
   DEPER  =   0.30     relativ break condition  

   TIME   =   0.40     timestep for ELM

  volume/ion in A,a.u.               =      26.62       179.66
  Fermi-wavevector in a.u.,A,eV,Ry     =   1.155027  2.182685 18.151363  1.334088
  Thomas-Fermi vector in A             =   2.291659
 
 Write flags
   LWAVE        =      F    write WAVECAR
   LDOWNSAMPLE  =      F    k-point downsampling of WAVECAR
   LCHARG       =      F    write CHGCAR
   LVTOT        =      F    write LOCPOT, total local potential
   LVHAR        =      F    write LOCPOT, Hartree potential only
   LELF         =      F    write electronic localiz. function (ELF)
   LORBIT       =     11    0 simple, 1 ext, 2 COOP (PROOUT), +10 PAW based schemes


 Dipole corrections
   LMONO  =      F    monopole corrections only (constant potential shift)
   LDIPOL =      F    correct potential (dipole corrections)
   IDIPOL =      0    1-x, 2-y, 3-z, 4-all directions 
   EPSILON=  1.0000000 bulk dielectric constant

 Exchange correlation treatment:
   GGA     =    PE    GGA type
   LEXCH   =     8    internal setting for exchange type
   VOSKOWN=      0    Vosko Wilk Nusair interpolation
   LHFCALC =     F    Hartree Fock is set to
   LHFONE  =     F    Hartree Fock one center treatment
   AEXX    =    0.0000 exact exchange contribution

 Linear response parameters
   LEPSILON=     F    determine dielectric tensor
   LRPA    =     F    only Hartree local field effects (RPA)
   LNABLA  =     F    use nabla operator in PAW spheres
   LVEL    =     F    velocity operator in full k-point grid
   LINTERFAST=   F  fast interpolation
   KINTER  =     0    interpolate to denser k-point grid
   CSHIFT  =0.1000    complex shift for real part using Kramers Kronig
   OMEGAMAX=  -1.0    maximum frequency
   DEG_THRESHOLD= 0.2000000E-02 threshold for treating states as degnerate
   RTIME   =   -0.100 relaxation time in fs
  (WPLASMAI=    0.000 imaginary part of plasma frequency in eV, 0.658/RTIME)
   DFIELD  = 0.0000000 0.0000000 0.0000000 field for delta impulse in time
 
 Orbital magnetization related:
   ORBITALMAG=     F  switch on orbital magnetization
   LCHIMAG   =     F  perturbation theory with respect to B field
   DQ        =  0.001000  dq finite difference perturbation B field
   LLRAUG    =     F  two centre corrections for induced B field



--------------------------------------------------------------------------------------------------------


 conjugate gradient relaxation of ions
   using selective dynamics as specified on POSCAR
 charge density and potential will be updated during run
 spin polarized calculation
 RMM-DIIS sequential band-by-band and
  variant of blocked Davidson during initial phase
 perform sub-space diagonalisation
    before iterative eigenvector-optimisation
 modified Broyden-mixing scheme, WC =      100.0
 initial mixing is a Kerker type mixing with AMIX =  0.4000 and BMIX =      1.0000
 Hartree-type preconditioning will be used
 using additional bands          150
 real space projection scheme for non local part
 use partial core corrections
 calculate Harris-corrections to forces 
   (improved forces if not selfconsistent)
 use gradient corrections 
 use of overlap-Matrix (Vanderbilt PP)
 Methfessel and Paxton  Order N= 1 SIGMA  =   0.10


--------------------------------------------------------------------------------------------------------


  energy-cutoff  :      500.00
  volume of cell :     2129.85
      direct lattice vectors                 reciprocal lattice vectors
     8.992185109 -5.170826448  0.000383336     0.111197746 -0.000017281 -0.000174642
     0.001627328 10.350725382  0.011958750     0.055550138  0.096602951 -0.000084467
     0.035935661 -0.000657872 22.880987981    -0.000030896 -0.000050489  0.043704454

  length of vectors
    10.372889633 10.350732418 22.881016210     0.111197884  0.111435878  0.043704494


 
 k-points in units of 2pi/SCALE and weight: Automatic mesh                          
   0.00000000  0.00000000  0.00000000       1.000
 
 k-points in reciprocal lattice and weights: Automatic mesh                          
   0.00000000  0.00000000  0.00000000       1.000
 
 position of ions in fractional coordinates (direct lattice) 
   0.94239099  0.03672395  0.46845874
   0.84461145  0.11226426  0.37441658
   0.43199954  0.77686926  0.18821361
   0.85675485  0.11839410  0.09331418
   0.09871240  0.61477032  0.09254210
   0.10984141  0.61782554  0.37660090
   0.18343754  0.78804055  0.19012894
   0.10309746  0.36759448  0.37715221
   0.44150888  0.28314212  0.18861121
   0.60254192  0.36818397  0.37099934
   0.85332598  0.35961784  0.37523723
   0.60458010  0.86441589  0.08930533
   0.10168484  0.10548035  0.09586720
   0.35085434  0.36435567  0.09620584
   0.42876249  0.53578815  0.46569529
   0.93505129  0.27275914  0.46835630
   0.52270230  0.20097325  0.27988950
   0.35221798  0.37717227  0.37546853
   0.92609899  0.52765658  0.19171772
   0.92830227  0.79102608  0.19000816
   0.84322888  0.61755557  0.09590817
   0.09056179  0.11811989  0.37602885
   0.68833013  0.04253620  0.18774131
   0.35058084  0.61468367  0.09168924
   0.84057681  0.35897384  0.09655214
   0.42376128  0.27247783  0.47006870
   0.76879414  0.20730436  0.27998071
   0.35174584  0.87767122  0.09021428
   0.51470231  0.95433572  0.28363858
   0.35340908  0.11214057  0.37544752
   0.59439982  0.35881705  0.09484512
   0.18081842  0.29137813  0.18839744
   0.76194567  0.44888715  0.27989938
   0.18634107  0.03629504  0.18844793
   0.18313664  0.52364574  0.46555017
   0.01446321  0.70152707  0.28287413
   0.68427919  0.53293609  0.46567643
   0.67714954  0.53616153  0.18990162
   0.35997243  0.86640045  0.37625116
   0.52382059  0.45137615  0.27956360
   0.51638725  0.68937345  0.28377657
   0.18941330  0.78900688  0.46702073
   0.26580685  0.44772526  0.28057812
   0.84661274  0.86145177  0.37246617
   0.02226252  0.44615289  0.28098792
   0.77638600  0.95052405  0.28192006
   0.17885124  0.02530925  0.46946304
   0.94150046  0.28142744  0.18899161
   0.26319199  0.94671424  0.28030853
   0.60223179  0.61586912  0.09755711
   0.09558800  0.86289577  0.37482524
   0.43605719  0.03976170  0.18801373
   0.93205147  0.78492535  0.46556058
   0.60392403  0.10786207  0.37511024
   0.01850383  0.94904640  0.28065673
   0.42620931  0.78029913  0.46682258
   0.01603899  0.20018741  0.28011098
   0.68360404  0.28441373  0.19189495
   0.35709080  0.62644760  0.37721743
   0.35886279  0.12072047  0.09417975
   0.94164862  0.54276441  0.46607936
   0.26615004  0.70381876  0.28389443
   0.85061596  0.86542365  0.09390315
   0.59898781  0.86794067  0.37585963
   0.94801883  0.04677563  0.19068655
   0.17969260  0.52648375  0.18803420
   0.43627620  0.52992622  0.18833954
   0.68229566  0.78745102  0.46324953
   0.26440498  0.20080322  0.27944476
   0.09882160  0.36240060  0.09508004
   0.84992154  0.61642147  0.37241873
   0.10049228  0.86897349  0.09251825
   0.18197159  0.28277943  0.46756054
   0.76953245  0.68933851  0.28446951
   0.61283959  0.62355209  0.37258642
   0.67651493  0.26795762  0.46955169
   0.42776630  0.02850086  0.46869513
   0.68168427  0.02999970  0.46187766
   0.59314284  0.12111408  0.09465455
   0.68305458  0.78412128  0.18630889
 
 position of ions in cartesian coordinates  (Angst):
   8.49104837 -4.49312887 10.71959926
   7.60854006 -3.20556903  8.56868761
   3.89264759  5.80724188  4.31596939
   7.70764420 -3.20472723  2.13686500
   0.89196615  5.85283319  2.12484444
   1.00225308  5.82672386  8.62443128
   1.65761908  7.20814254  4.35983238
   0.94122286  3.27152228  8.63405061
   3.97736817  0.64763647  4.31916609
   5.43209977  0.69508741  8.49346554
   7.68733474 -0.69034186  8.59042621
   5.44111211  5.82109392  2.05396324
   0.91798563  0.56594039  2.19483669
   3.15899729  1.95707534  2.20577635
   3.87311864  3.32843325 10.66214003
   8.42542887 -2.01204114 10.72007527
   4.71062091 -0.62276807  6.40675204
   3.18131578  2.08250152  8.59573654
   8.33540170  0.67280509  4.39335597
   8.35558120  3.38747880  4.35738993
   7.58692169  2.03189479  2.20218221
   0.82805345  0.75409981  8.60535881
   6.19640782 -3.11907861  4.29647931
   3.15678298  4.54956888  2.10542571
   7.56267613 -0.63090072  2.21382356
   3.82787552  0.62883792 10.75905711
   6.92353791 -1.82973475  6.40900909
   3.16763385  7.26565776  2.07482258
   4.64004418  7.21644407  6.50154097
   3.19159428 -0.66692773  8.59208683
   5.34894541  0.64041612  2.17466899
   1.63319702  2.08087041  4.31427334
   6.86234540  0.70623464  6.41003457
   1.68244445 -0.58798129  4.31238039
   1.66438059  4.47283921 10.65858025
   0.14136273  7.18634122  6.48083453
   6.17076680  1.97767986 10.66177234
   6.09675075  2.04811306  4.35180815
   3.25186946  7.10627066  8.61949742
   4.72107259  1.96330128  6.40229006
   4.65476932  4.46517970  6.50153024
   1.72130610  7.18706301 10.69540397
   2.40099579  3.25965547  6.42536075
   7.62768512  4.53871815  8.53302045
   0.21101225  4.50270558  6.43462509
   6.99308439  5.82387070  6.46227426
   1.62517508 -0.66314844 10.74214937
   8.47339591 -1.95548163  4.32804110
   2.37828475  8.43807462  6.42515848
   5.41988776  3.26059185  2.23979905
   0.87441883  8.43708158  8.58672757
   3.92792810 -1.84333732  4.30258262
   8.39918694  3.30476403 10.66223015
   5.44425202 -2.00658248  8.58441425
   0.17801986  9.72745394  6.43305976
   3.85059842  5.87250052 10.69085665
   0.15461729  1.98896579  6.41161619
   6.15445280 -0.59103573  4.39440923
   3.22560154  4.63748440  8.63873579
   3.23054154 -0.60613478  2.15650704
   8.48511086  0.74859712 10.67120791
   2.40461773  5.90863230  6.50430380
   7.65367901  4.55931320  2.15927235
   5.40112841  5.88630622  8.61064879
   8.53168942 -4.41800459  4.36401943
   1.62344300  4.52020579  4.30877317
   3.93070678  3.22908836  4.31589922
   6.15325751  4.62235207 10.60928549
   2.38794735  0.71108291  6.39647482
   0.89262861  3.24005725  2.17989688
   7.65703803  1.98536758  8.52900599
   0.90838398  8.47481698  2.12733935
   1.65358453  1.98572109 10.70169855
   6.93112260  3.15584778  6.51748204
   5.52517086  3.28508417  8.53283722
   6.10065717 -0.72489448 10.74727045
   3.86344299 -1.91720909 10.72471250
   6.14647781 -3.21465626 10.56883730
   5.33724878 -1.81348239  2.16746543
   6.15012434  4.58414482  4.27257053
 


--------------------------------------------------------------------------------------------------------


 k-point  1 :   0.0000 0.0000 0.0000  plane waves:   53997

 maximum and minimum number of plane-waves per node :      3381     3370

 maximum number of plane-waves:     53997
 maximum index in each direction: 
   IXMAX=   18   IYMAX=   18   IZMAX=   41
   IXMIN=  -18   IYMIN=  -18   IZMIN=  -41


 real space projection operators:
  total allocation   :      75119.06 KBytes
  max/ min on nodes  :       4723.88       4663.97


 parallel 3D FFT for wavefunctions:
    minimum data exchange during FFTs selected (reduces bandwidth)
 parallel 3D FFT for charge:
    minimum data exchange during FFTs selected (reduces bandwidth)


 total amount of memory used by VASP MPI-rank0    90128. kBytes
=======================================================================

   base      :      30000. kBytes
   nonlr-proj:      15881. kBytes
   fftplans  :       7275. kBytes
   grid      :      22246. kBytes
   one-center:        155. kBytes
   wavefun   :      14571. kBytes
 
     INWAV:  cpu time    0.0000: real time    0.0000
 Broyden mixing: mesh for mixing (old mesh)
   NGX = 37   NGY = 37   NGZ = 83
  (NGX  =160   NGY  =160   NGZ  =336)
  gives a total of 113627 points

 initial charge density was supplied:
 charge density of overlapping atoms calculated
 number of electron     748.0000000 magnetization     149.5000000
 keeping initial charge density in first step


--------------------------------------------------------------------------------------------------------


 Maximum index for non-local projection operator          521
 Maximum index for augmentation-charges          975 (set IRDMAX)


--------------------------------------------------------------------------------------------------------


 First call to EWALD:  gamma=   0.138
 Maximum number of real-space cells 4x 4x 2
 Maximum number of reciprocal cells 2x 2x 5

    FEWALD:  cpu time    0.0026: real time    0.0027


--------------------------------------- Iteration      1(   1)  ---------------------------------------


    POTLOK:  cpu time    0.2437: real time    0.2469
    SETDIJ:  cpu time    0.0262: real time    0.0266
     EDDAV:  cpu time   11.3687: real time   11.4462
       DOS:  cpu time    0.0009: real time    0.0010
    --------------------------------------------
      LOOP:  cpu time   11.6396: real time   11.7208

 eigenvalue-minimisations  :  2096
 total energy-change (2. order) : 0.6700785E+04  (-0.3120178E+05)
 number of electron     748.0000000 magnetization     149.5000000
 augmentation part      748.0000000 magnetization     149.5000000

 Free energy of the ion-electron system (eV)
  ---------------------------------------------------
  alpha Z        PSCENC =      1905.09059336
  Ewald energy   TEWEN  =    244702.50741149
  -Hartree energ DENC   =   -310703.06038654
  -exchange      EXHF   =         0.00000000
  -V(xc)+E(xc)   XCENC  =       423.80024141
  PAW double counting   =     59576.71033912   -60239.08847553
  entropy T*S    EENTRO =        -0.02462594
  eigenvalues    EBANDS =      6881.72022320
  atomic energy  EATOM  =     64153.12970590
  Solvation  Ediel_sol  =         0.00000000
  ---------------------------------------------------
  free energy    TOTEN  =      6700.78502647 eV

  energy without entropy =     6700.80965241  energy(sigma->0) =     6700.79323512


--------------------------------------------------------------------------------------------------------




--------------------------------------- Iteration      1(   2)  ---------------------------------------


     EDDAV:  cpu time   11.3838: real time   11.4610
       DOS:  cpu time    0.0011: real time    0.0011
    --------------------------------------------
      LOOP:  cpu time   11.3849: real time   11.4622

 eigenvalue-minimisations  :  2096
 total energy-change (2. order) :-0.6329617E+04  (-0.5787137E+04)
 number of electron     748.0000000 magnetization     149.5000000
 augmentation part      748.0000000 magnetization     149.5000000

 Free energy of the ion-electron system (eV)
  ---------------------------------------------------
  alpha Z        PSCENC =      1905.09059336
  Ewald energy   TEWEN  =    244702.50741149
  -Hartree energ DENC   =   -310703.06038654
  -exchange      EXHF   =         0.00000000
  -V(xc)+E(xc)   XCENC  =       423.80024141
  PAW double counting   =     59576.71033912   -60239.08847553
  entropy T*S    EENTRO =        -0.00411155
  eigenvalues    EBANDS =       552.08318807
  atomic energy  EATOM  =     64153.12970590
  Solvation  Ediel_sol  =         0.00000000
  ---------------------------------------------------
  free energy    TOTEN  =       371.16850573 eV

  energy without entropy =      371.17261728  energy(sigma->0) =      371.16987624


--------------------------------------------------------------------------------------------------------




--------------------------------------- Iteration      1(   3)  ---------------------------------------


     EDDAV:  cpu time   12.0929: real time   12.1737
       DOS:  cpu time    0.0012: real time    0.0012
    --------------------------------------------
      LOOP:  cpu time   12.0942: real time   12.1749

 eigenvalue-minimisations  :  2276
 total energy-change (2. order) :-0.8553382E+03  (-0.6965486E+03)
 number of electron     748.0000000 magnetization     149.5000000
 augmentation part      748.0000000 magnetization     149.5000000

 Free energy of the ion-electron system (eV)
  ---------------------------------------------------
  alpha Z        PSCENC =      1905.09059336
  Ewald energy   TEWEN  =    244702.50741149
  -Hartree energ DENC   =   -310703.06038654
  -exchange      EXHF   =         0.00000000
  -V(xc)+E(xc)   XCENC  =       423.80024141
  PAW double counting   =     59576.71033912   -60239.08847553
  entropy T*S    EENTRO =        -0.00329198
  eigenvalues    EBANDS =      -303.25579031
  atomic energy  EATOM  =     64153.12970590
  Solvation  Ediel_sol  =         0.00000000
  ---------------------------------------------------
  free energy    TOTEN  =      -484.16965308 eV

  energy without entropy =     -484.16636109  energy(sigma->0) =     -484.16855575


--------------------------------------------------------------------------------------------------------




--------------------------------------- Iteration      1(   4)  ---------------------------------------


     EDDAV:  cpu time   12.6628: real time   12.7479
       DOS:  cpu time    0.0012: real time    0.0012
    --------------------------------------------
      LOOP:  cpu time   12.6640: real time   12.7491

 eigenvalue-minimisations  :  2352
 total energy-change (2. order) :-0.6964260E+02  (-0.6596931E+02)
 number of electron     748.0000000 magnetization     149.5000000
 augmentation part      748.0000000 magnetization     149.5000000

 Free energy of the ion-electron system (eV)
  ---------------------------------------------------
  alpha Z        PSCENC =      1905.09059336
  Ewald energy   TEWEN  =    244702.50741149
  -Hartree energ DENC   =   -310703.06038654
  -exchange      EXHF   =         0.00000000
  -V(xc)+E(xc)   XCENC  =       423.80024141
  PAW double counting   =     59576.71033912   -60239.08847553
  entropy T*S    EENTRO =        -0.02552466
  eigenvalues    EBANDS =      -372.87615427
  atomic energy  EATOM  =     64153.12970590
  Solvation  Ediel_sol  =         0.00000000
  ---------------------------------------------------
  free energy    TOTEN  =      -553.81224972 eV

  energy without entropy =     -553.78672506  energy(sigma->0) =     -553.80374150


--------------------------------------------------------------------------------------------------------




--------------------------------------- Iteration      1(   5)  ---------------------------------------


     EDDAV:  cpu time   12.6103: real time   12.6971
       DOS:  cpu time    0.0014: real time    0.0014
    CHARGE:  cpu time    0.3004: real time    0.3020
    MIXING:  cpu time    0.0088: real time    0.0091
    --------------------------------------------
      LOOP:  cpu time   12.9209: real time   13.0096

 eigenvalue-minimisations  :  2400
 total energy-change (2. order) :-0.1650850E+01  (-0.1645572E+01)
 number of electron     748.0000001 magnetization     144.6818071
 augmentation part      334.6967135 magnetization     115.2955227

 Broyden mixing:
  rms(total) = 0.10089E+02    rms(broyden)= 0.10088E+02
  rms(prec ) = 0.10412E+02
  weight for this iteration     100.00

 Free energy of the ion-electron system (eV)
  ---------------------------------------------------
  alpha Z        PSCENC =      1905.09059336
  Ewald energy   TEWEN  =    244702.50741149
  -Hartree energ DENC   =   -310703.06038654
  -exchange      EXHF   =         0.00000000
  -V(xc)+E(xc)   XCENC  =       423.80024141
  PAW double counting   =     59576.71033912   -60239.08847553
  entropy T*S    EENTRO =        -0.02502970
  eigenvalues    EBANDS =      -374.52749890
  atomic energy  EATOM  =     64153.12970590
  Solvation  Ediel_sol  =         0.00000000
  ---------------------------------------------------
  free energy    TOTEN  =      -555.46309939 eV

  energy without entropy =     -555.43806969  energy(sigma->0) =     -555.45475615


--------------------------------------------------------------------------------------------------------




--------------------------------------- Iteration      1(   6)  ---------------------------------------


    POTLOK:  cpu time    0.2336: real time    0.2352
    SETDIJ:  cpu time    0.0244: real time    0.0245
    EDDIAG:  cpu time    1.4644: real time    1.4750
  RMM-DIIS:  cpu time    4.6172: real time    4.6447
    ORTHCH:  cpu time    0.6159: real time    0.6193
       DOS:  cpu time    0.0012: real time    0.0012
    CHARGE:  cpu time    0.2909: real time    0.2922
    MIXING:  cpu time    0.0084: real time    0.0088
    --------------------------------------------
      LOOP:  cpu time    7.2559: real time    7.3010

 eigenvalue-minimisations  :  2100
 total energy-change (2. order) :-0.1663733E+03  (-0.9352079E+02)
 number of electron     747.9999993 magnetization     142.0417112
 augmentation part      393.9704309 magnetization     126.9831764

 Broyden mixing:
  rms(total) = 0.18974E+02    rms(broyden)= 0.18974E+02
  rms(prec ) = 0.20822E+02
  weight for this iteration     100.00

 eigenvalues of (default mixing * dielectric matrix)
  average eigenvalue GAMMA=   0.2271
  0.2271

 Free energy of the ion-electron system (eV)
  ---------------------------------------------------
  alpha Z        PSCENC =      1905.09059336
  Ewald energy   TEWEN  =    244702.50741149
  -Hartree energ DENC   =   -309785.63648585
  -exchange      EXHF   =         0.00000000
  -V(xc)+E(xc)   XCENC  =       379.22367384
  PAW double counting   =     65101.39786005   -65583.31065667
  entropy T*S    EENTRO =        -0.03074970
  eigenvalues    EBANDS =     -1594.20771991
  atomic energy  EATOM  =     64153.12970590
  Solvation  Ediel_sol  =         0.00000000
  ---------------------------------------------------
  free energy    TOTEN  =      -721.83636748 eV

  energy without entropy =     -721.80561779  energy(sigma->0) =     -721.82611758


--------------------------------------------------------------------------------------------------------




--------------------------------------- Iteration      1(   7)  ---------------------------------------


    POTLOK:  cpu time    0.2310: real time    0.2325
    SETDIJ:  cpu time    0.0246: real time    0.0247
    EDDIAG:  cpu time    1.4608: real time    1.4707
  RMM-DIIS:  cpu time    4.5988: real time    4.6263
    ORTHCH:  cpu time    0.6124: real time    0.6158
       DOS:  cpu time    0.0013: real time    0.0013
    CHARGE:  cpu time    0.2885: real time    0.2898
    MIXING:  cpu time    0.0082: real time    0.0082
    --------------------------------------------
      LOOP:  cpu time    7.2257: real time    7.2695

 eigenvalue-minimisations  :  2101
 total energy-change (2. order) : 0.1641197E+03  (-0.2524093E+02)
 number of electron     747.9999995 magnetization     140.1156816
 augmentation part      369.7385604 magnetization     116.5638656

 Broyden mixing:
  rms(total) = 0.12088E+02    rms(broyden)= 0.12087E+02
  rms(prec ) = 0.16485E+02
  weight for this iteration     100.00

 eigenvalues of (default mixing * dielectric matrix)
  average eigenvalue GAMMA=   0.2457
  0.2457  0.2457

 Free energy of the ion-electron system (eV)
  ---------------------------------------------------
  alpha Z        PSCENC =      1905.09059336
  Ewald energy   TEWEN  =    244702.50741149
  -Hartree energ DENC   =   -309840.15971473
  -exchange      EXHF   =         0.00000000
  -V(xc)+E(xc)   XCENC  =       383.31667821
  PAW double counting   =     66302.83954518   -66946.46346937
  entropy T*S    EENTRO =        -0.01834377
  eigenvalues    EBANDS =     -1217.95902814
  atomic energy  EATOM  =     64153.12970590
  Solvation  Ediel_sol  =         0.00000000
  ---------------------------------------------------
  free energy    TOTEN  =      -557.71662186 eV

  energy without entropy =     -557.69827809  energy(sigma->0) =     -557.71050727


--------------------------------------------------------------------------------------------------------




--------------------------------------- Iteration      1(   8)  ---------------------------------------


    POTLOK:  cpu time    0.2295: real time    0.2311
    SETDIJ:  cpu time    0.0251: real time    0.0252
    EDDIAG:  cpu time    1.5331: real time    1.5435
  RMM-DIIS:  cpu time    4.5997: real time    4.6271
    ORTHCH:  cpu time    0.6210: real time    0.6244
       DOS:  cpu time    0.0012: real time    0.0012
    CHARGE:  cpu time    0.2931: real time    0.2944
    MIXING:  cpu time    0.0083: real time    0.0083
    --------------------------------------------
      LOOP:  cpu time    7.3111: real time    7.3551

 eigenvalue-minimisations  :  2098
 total energy-change (2. order) :-0.1483741E+03  (-0.1019008E+02)
 number of electron     747.9999999 magnetization     136.2235351
 augmentation part      362.2779671 magnetization     112.0713485

 Broyden mixing:
  rms(total) = 0.18061E+02    rms(broyden)= 0.18060E+02
  rms(prec ) = 0.24962E+02
  weight for this iteration     100.00

 eigenvalues of (default mixing * dielectric matrix)
  average eigenvalue GAMMA=   0.2442
  0.3325  0.3325  0.0675

 Free energy of the ion-electron system (eV)
  ---------------------------------------------------
  alpha Z        PSCENC =      1905.09059336
  Ewald energy   TEWEN  =    244702.50741149
  -Hartree energ DENC   =   -310029.70138382
  -exchange      EXHF   =         0.00000000
  -V(xc)+E(xc)   XCENC  =       386.64096264
  PAW double counting   =     67141.37881610   -67823.20141076
  entropy T*S    EENTRO =        -0.00893837
  eigenvalues    EBANDS =     -1141.92650333
  atomic energy  EATOM  =     64153.12970590
  Solvation  Ediel_sol  =         0.00000000
  ---------------------------------------------------
  free energy    TOTEN  =      -706.09074679 eV

  energy without entropy =     -706.08180841  energy(sigma->0) =     -706.08776733


--------------------------------------------------------------------------------------------------------




--------------------------------------- Iteration      1(   9)  ---------------------------------------


    POTLOK:  cpu time    0.2307: real time    0.2323
    SETDIJ:  cpu time    0.0245: real time    0.0246
    EDDIAG:  cpu time    1.4670: real time    1.4769
  RMM-DIIS:  cpu time    4.6038: real time    4.6314
    ORTHCH:  cpu time    0.6128: real time    0.6162
       DOS:  cpu time    0.0011: real time    0.0011
    CHARGE:  cpu time    0.2871: real time    0.2884
    MIXING:  cpu time    0.0082: real time    0.0083
    --------------------------------------------
      LOOP:  cpu time    7.2354: real time    7.2793

 eigenvalue-minimisations  :  2100
 total energy-change (2. order) : 0.1026386E+03  (-0.1169246E+02)
 number of electron     748.0000009 magnetization     133.1811739
 augmentation part      365.9866382 magnetization     104.6168431

 Broyden mixing:
  rms(total) = 0.15503E+02    rms(broyden)= 0.15503E+02
  rms(prec ) = 0.17833E+02
  weight for this iteration     100.00

 eigenvalues of (default mixing * dielectric matrix)
  average eigenvalue GAMMA=   0.2661
  0.4320  0.4320  0.1177  0.0826

 Free energy of the ion-electron system (eV)
  ---------------------------------------------------
  alpha Z        PSCENC =      1905.09059336
  Ewald energy   TEWEN  =    244702.50741149
  -Hartree energ DENC   =   -310223.95101828
  -exchange      EXHF   =         0.00000000
  -V(xc)+E(xc)   XCENC  =       393.63666567
  PAW double counting   =     68625.22262793   -69334.35484565
  entropy T*S    EENTRO =        -0.02356364
  eigenvalues    EBANDS =      -824.70969712
  atomic energy  EATOM  =     64153.12970590
  Solvation  Ediel_sol  =         0.00000000
  ---------------------------------------------------
  free energy    TOTEN  =      -603.45212034 eV

  energy without entropy =     -603.42855670  energy(sigma->0) =     -603.44426579


--------------------------------------------------------------------------------------------------------




--------------------------------------- Iteration      1(  10)  ---------------------------------------


    POTLOK:  cpu time    0.2311: real time    0.2326
    SETDIJ:  cpu time    0.0248: real time    0.0250
    EDDIAG:  cpu time    1.4649: real time    1.4749
  RMM-DIIS:  cpu time    4.5936: real time    4.6214
    ORTHCH:  cpu time    0.6127: real time    0.6161
       DOS:  cpu time    0.0012: real time    0.0012
    CHARGE:  cpu time    0.2923: real time    0.2936
    MIXING:  cpu time    0.0086: real time    0.0087
    --------------------------------------------
      LOOP:  cpu time    7.2292: real time    7.2735

 eigenvalue-minimisations  :  2101
 total energy-change (2. order) : 0.1126290E+03  (-0.1213204E+02)
 number of electron     748.0000004 magnetization     130.0780947
 augmentation part      376.1924080 magnetization     100.4693621

 Broyden mixing:
  rms(total) = 0.10154E+02    rms(broyden)= 0.10154E+02
  rms(prec ) = 0.12720E+02
  weight for this iteration     100.00

 eigenvalues of (default mixing * dielectric matrix)
  average eigenvalue GAMMA=   0.3190
  0.6064  0.6064  0.1956  0.1173  0.0692

 Free energy of the ion-electron system (eV)
  ---------------------------------------------------
  alpha Z        PSCENC =      1905.09059336
  Ewald energy   TEWEN  =    244702.50741149
  -Hartree energ DENC   =   -309935.81951381
  -exchange      EXHF   =         0.00000000
  -V(xc)+E(xc)   XCENC  =       400.36449095
  PAW double counting   =     69612.84491104   -70317.61445786
  entropy T*S    EENTRO =        -0.00724177
  eigenvalues    EBANDS =     -1011.31906482
  atomic energy  EATOM  =     64153.12970590
  Solvation  Ediel_sol  =         0.00000000
  ---------------------------------------------------
  free energy    TOTEN  =      -490.82316553 eV

  energy without entropy =     -490.81592376  energy(sigma->0) =     -490.82075161


--------------------------------------------------------------------------------------------------------




--------------------------------------- Iteration      1(  11)  ---------------------------------------


    POTLOK:  cpu time    0.2310: real time    0.2325
    SETDIJ:  cpu time    0.0251: real time    0.0252
    EDDIAG:  cpu time    1.4585: real time    1.4681
  RMM-DIIS:  cpu time    4.6050: real time    4.6331
    ORTHCH:  cpu time    0.6124: real time    0.6157
       DOS:  cpu time    0.0012: real time    0.0012
    CHARGE:  cpu time    0.2957: real time    0.2970
    MIXING:  cpu time    0.0087: real time    0.0087
    --------------------------------------------
      LOOP:  cpu time    7.2375: real time    7.2816

 eigenvalue-minimisations  :  2100
 total energy-change (2. order) :-0.1424542E+02  (-0.9482007E+01)
 number of electron     747.9999990 magnetization     126.0269308
 augmentation part      367.1866261 magnetization      95.7127592

 Broyden mixing:
  rms(total) = 0.13137E+02    rms(broyden)= 0.13136E+02
  rms(prec ) = 0.15000E+02
  weight for this iteration     100.00

 eigenvalues of (default mixing * dielectric matrix)
  average eigenvalue GAMMA=   0.3677
  1.0857  0.5830  0.2264  0.1206  0.1206  0.0699

 Free energy of the ion-electron system (eV)
  ---------------------------------------------------
  alpha Z        PSCENC =      1905.09059336
  Ewald energy   TEWEN  =    244702.50741149
  -Hartree energ DENC   =   -310240.56242489
  -exchange      EXHF   =         0.00000000
  -V(xc)+E(xc)   XCENC  =       405.36771983
  PAW double counting   =     70553.01647312   -71321.66138052
  entropy T*S    EENTRO =        -0.01219824
  eigenvalues    EBANDS =      -661.94448737
  atomic energy  EATOM  =     64153.12970590
  Solvation  Ediel_sol  =         0.00000000
  ---------------------------------------------------
  free energy    TOTEN  =      -505.06858731 eV

  energy without entropy =     -505.05638907  energy(sigma->0) =     -505.06452123


--------------------------------------------------------------------------------------------------------




--------------------------------------- Iteration      1(  12)  ---------------------------------------


    POTLOK:  cpu time    0.2300: real time    0.2315
    SETDIJ:  cpu time    0.0249: real time    0.0250
[...]
   -.142E+00 0.766E+02 -.140E+04   0.599E+00 -.763E+02 0.140E+04   -.511E+00 -.359E+00 0.541E+00   -.186E-03 -.129E-03 0.302E-04
   0.404E+02 0.220E+02 0.280E+04   -.401E+02 -.222E+02 -.280E+04   -.128E+00 0.556E+00 -.105E+01   0.384E-04 0.915E-04 -.213E-03
   0.641E+02 0.983E+02 -.280E+04   -.641E+02 -.979E+02 0.280E+04   0.456E-01 -.481E+00 0.157E+01   0.129E-03 0.519E-04 0.140E-04
   -.229E+02 -.382E+02 0.458E+02   0.230E+02 0.379E+02 -.457E+02   0.383E-02 0.421E+00 -.115E+00   -.294E-03 -.209E-03 0.769E-04
   -.477E+01 -.190E+02 0.277E+04   0.441E+01 0.189E+02 -.277E+04   0.709E-01 0.396E+00 -.123E+01   -.729E-04 -.269E-03 -.191E-03
   -.830E+02 -.202E+02 -.127E+04   0.828E+02 0.198E+02 0.127E+04   0.130E+00 0.402E+00 -.581E+00   -.232E-03 -.108E-03 0.197E-03
   0.819E+02 0.176E+02 0.123E+04   -.822E+02 -.174E+02 -.123E+04   0.995E-01 -.240E+00 -.123E+01   0.111E-03 0.378E-04 -.353E-03
   -.255E+02 -.541E+02 0.132E+04   0.252E+02 0.535E+02 -.132E+04   0.364E+00 0.794E+00 -.818E+00   -.152E-03 -.418E-04 -.301E-05
   0.123E+02 -.555E+02 0.128E+04   -.119E+02 0.555E+02 -.128E+04   -.227E+00 -.829E-01 -.589E+00   0.428E-04 -.800E-04 -.220E-03
   0.185E+02 -.467E+02 -.246E+04   -.186E+02 0.466E+02 0.246E+04   0.492E-01 0.126E+00 0.215E+01   -.227E-04 -.223E-04 0.183E-03
   -.515E+02 0.132E+02 -.201E+02   0.508E+02 -.133E+02 0.198E+02   0.830E+00 0.831E-01 0.350E+00   0.282E-04 0.135E-03 -.108E-03
   0.525E+00 -.249E+02 0.249E+04   -.770E+00 0.250E+02 -.249E+04   0.138E+00 0.108E-01 -.229E+01   0.200E-04 0.712E-04 -.456E-04
   0.599E+02 0.473E+02 -.126E+04   -.598E+02 -.466E+02 0.126E+04   -.138E+00 -.683E+00 0.201E+00   0.132E-03 -.192E-03 0.777E-04
   0.773E+01 0.268E+02 0.249E+04   -.762E+01 -.265E+02 -.249E+04   -.156E+00 -.479E+00 -.163E+01   -.166E-03 -.149E-04 -.141E-03
   -.454E+00 0.113E+02 -.246E+04   0.266E+00 -.113E+02 0.246E+04   0.216E+00 0.172E-01 0.251E+01   0.301E-04 0.621E-04 0.785E-04
   0.117E+01 -.310E+02 -.212E+02   -.139E+01 0.314E+02 0.216E+02   0.242E+00 -.309E+00 -.391E+00   -.311E-04 -.265E-03 -.245E-03
   0.147E+02 0.153E+02 -.129E+04   -.145E+02 -.146E+02 0.129E+04   -.287E+00 -.697E+00 0.570E+00   -.216E-03 0.112E-03 0.190E-03
   -.164E+01 0.153E+02 -.249E+04   0.136E+01 -.161E+02 0.249E+04   0.305E+00 0.845E+00 0.252E+01   0.134E-03 -.138E-04 0.720E-04
   -.570E+02 -.469E+02 -.254E+04   0.572E+02 0.464E+02 0.253E+04   -.340E+00 0.547E+00 0.235E+01   -.118E-03 -.820E-04 0.219E-03
   -.397E+02 0.302E+01 -.251E+04   0.386E+02 -.277E+01 0.251E+04   0.112E+01 -.292E+00 0.249E+01   0.151E-04 -.612E-04 0.168E-03
   -.343E+02 0.619E+02 0.246E+04   0.338E+02 -.611E+02 -.246E+04   0.505E+00 -.629E+00 -.196E+01   0.543E-05 0.194E-03 -.188E-03
   -.113E+02 -.682E+02 0.127E+04   0.113E+02 0.679E+02 -.127E+04   -.120E-01 0.465E+00 -.623E+00   -.113E-05 -.301E-03 -.437E-03
 -----------------------------------------------------------------------------------------------
   -.387E+00 -.820E+00 0.569E+01   -.504E-12 0.104E-11 0.841E-11   0.398E+00 0.831E+00 -.567E+01   0.279E-03 0.661E-06 -.441E-02
 
 
 POSITION                                       TOTAL-FORCE (eV/Angst)
 -----------------------------------------------------------------------------------
      8.37496     -4.61411     10.83196         0.004218      0.021520      0.003404
      7.54112     -3.33013      8.59185        -0.012584     -0.001681      0.031224
      3.89265      5.80724      4.31597         0.412620     -0.333354      0.682511
      7.70764     -3.20473      2.13687         0.071399     -0.625674     -0.436577
      0.89197      5.85283      2.12484        -0.406300     -0.186140     -0.482440
      0.97894      5.94010      8.47723         0.005232     -0.013268      0.012182
      1.65762      7.20814      4.35983         0.131248      0.238148      0.385747
      0.95176      3.28154      8.52375         0.008012      0.020626     -0.016057
      3.97737      0.64764      4.31917        -0.796646      0.629613      0.273175
      5.44739      0.77379      8.62424        -0.024922      0.000099     -0.001873
      7.65580     -0.57342      8.62091        -0.000334     -0.019907      0.002815
      5.44111      5.82109      2.05396         0.625418     -0.144505     -0.135675
      0.91799      0.56594      2.19484         0.060786      0.079564     -0.402484
      3.15900      1.95708      2.20578         0.239349     -0.130698     -0.858643
      3.92424      3.37432     10.77204         0.018044     -0.005590     -0.008961
      8.36921     -1.83566     10.92486         0.004373     -0.012997      0.001079
      4.64103     -0.60445      6.47562         0.017206     -0.020855     -0.009364
      3.19467      2.02658      8.49910        -0.018128      0.006075     -0.018173
      8.33540      0.67281      4.39336         0.114000     -0.250763      0.651567
      8.35558      3.38748      4.35739        -0.015500      0.000228      0.143007
      7.58692      2.03189      2.20218        -0.318569      0.012736     -0.822805
      0.86544      0.59859      8.50370         0.027830     -0.013937     -0.006949
      6.19641     -3.11908      4.29648        -0.105289     -0.725440      0.306208
      3.15678      4.54957      2.10543        -0.212850     -0.546116     -0.475558
      7.56268     -0.63090      2.21382         0.062976      0.368416     -0.602591
      3.88422      0.61457     10.89332         0.000403      0.010406     -0.013941
      7.00675     -1.89407      6.43276        -0.022344      0.006862     -0.029341
      3.16763      7.26566      2.07482        -0.093014      0.125842     -0.264390
      4.65755      7.09435      6.51688        -0.001149      0.008693     -0.016419
      3.13214     -0.70206      8.61402        -0.027109     -0.003241     -0.006589
      5.34895      0.64042      2.17467        -0.008853      0.005441      0.129510
      1.63320      2.08087      4.31427         0.351305     -0.281934      0.115352
      6.91338      0.79365      6.47986         0.002950      0.002287     -0.015699
      1.68244     -0.58798      4.31238         0.280331      0.248995      0.354341
      1.71394      4.68613     10.61648         0.022492      0.002467     -0.013303
      0.15173      7.22297      6.46471        -0.006205     -0.001818     -0.001165
      6.29638      2.07500     10.64376         0.003401      0.003344     -0.002335
      6.09675      2.04811      4.35181        -0.042390      0.074954     -0.003561
      3.20653      7.13212      8.57331         0.005133      0.010197     -0.008022
      4.70245      2.07458      6.38422         0.003362     -0.002746     -0.001942
      4.69225      4.51709      6.41363         0.002282     -0.000163     -0.012551
      1.68210      7.18691     10.58522        -0.000997     -0.003345     -0.009365
      2.45624      3.29553      6.34064         0.007752     -0.002298     -0.005427
      7.61551      4.42995      8.50258        -0.013663     -0.014254     -0.011855
      0.27663      4.53830      6.33872        -0.014360     -0.008932      0.015589
      7.05156      5.69632      6.41117        -0.014791     -0.001555     -0.011555
      1.58884     -0.77792     10.62756        -0.010938      0.019996     -0.004859
      8.47340     -1.95548      4.32804         0.369788      0.413730     -0.002785
      2.31627      8.46665      6.45236        -0.006249      0.016775      0.011737
      5.41989      3.26059      2.23980         0.016130      0.119089      0.590452
      0.87226      8.45234      8.50216        -0.014299      0.014505     -0.010010
      3.92793     -1.84334      4.30258        -0.068323     -0.264832     -0.515114
      8.48614      3.20310     10.55259        -0.003910      0.002593     -0.016071
      5.37726     -1.98329      8.77682        -0.018701      0.009277     -0.019767
      0.21273      9.71513      6.42327         0.005116      0.001525      0.003100
      3.92175      5.88213     10.54849         0.009785      0.002834     -0.016914
      0.25235      1.99453      6.31714         0.013197     -0.003847      0.001989
      6.15445     -0.59104      4.39441        -0.133869      0.090873     -0.613845
      3.25863      4.64356      8.46412        -0.000754     -0.019601     -0.001298
      3.23054     -0.60613      2.15651         0.171522      0.234078      0.731499
      8.48797      0.83615     10.63656         0.011798      0.010819      0.001290
      2.42510      5.79503      6.42767         0.003900      0.000402     -0.015062
      7.65368      4.55931      2.15927        -0.322145      0.372345      0.407688
      5.33656      5.78826      8.56118        -0.004470     -0.020932     -0.005035
      8.53169     -4.41800      4.36402        -0.167577     -0.001461      0.293119
      1.62344      4.52021      4.30877        -0.048157      0.120063      0.219333
      3.93071      3.22909      4.31590         0.181162      0.022541      0.139688
      6.19069      4.51527     10.60893         0.008135     -0.011220     -0.015939
      2.29957      0.71355      6.33782        -0.001544      0.003802      0.003913
      0.89263      3.24006      2.17990        -0.134867      0.169009      0.250308
      7.71427      2.03944      8.56400        -0.022721      0.026843     -0.006840
      0.90838      8.47482      2.12734        -0.032048     -0.149350      0.189875
      1.62020      1.96600     10.71039        -0.005014      0.001338     -0.008119
      6.87637      3.26891      6.46665        -0.001531      0.013374      0.005495
      5.40798      3.32018      8.52766        -0.000291     -0.001215     -0.010166
      6.11816     -0.60622     10.71321        -0.005591      0.008376     -0.011396
      3.87222     -2.01216     10.69683        -0.009615      0.014383     -0.015905
      6.05881     -3.22680     10.72561         0.010826     -0.003339     -0.003422
      5.33725     -1.81348      2.16747        -0.033190      0.153205      0.280382
      6.15012      4.58414      4.27257        -0.081683      0.108713     -0.239425
 -----------------------------------------------------------------------------------
    total drift:                                0.011343      0.011265      0.013435


--------------------------------------------------------------------------------------------------------



  FREE ENERGIE OF THE ION-ELECTRON SYSTEM (eV)
  ---------------------------------------------------
  free  energy   TOTEN  =      -537.76013550 eV

  energy  without entropy=     -537.77997383  energy(sigma->0) =     -537.76674827
 
 d Force = 0.2310650E-02[ 0.321E-03, 0.430E-02]  d Energy = 0.2339824E-02-0.292E-04
 d Force =-0.1169283E+03[-0.117E+03,-0.117E+03]  d Ewald  =-0.1169283E+03-0.121E-04


--------------------------------------------------------------------------------------------------------


    POTLOK:  cpu time    0.2706: real time    0.2721


--------------------------------------------------------------------------------------------------------


 Conjugate gradient step on ions:
 trial-energy change:   -0.002340  1 .order   -0.002311   -0.004301   -0.000321
  (g-gl).g = 0.327E-02      g.g   = 0.292E-02  gl.gl    = 0.506E-02
 g(Force)  = 0.292E-02   g(Stress)= 0.000E+00 ortho     =-0.630E-04
 gamma     =   0.64619
 trial     =   1.49315
 opt step  =   1.60799  (harmonic =   1.61343) maximal distance =0.00675169
 next E    =  -537.760148   (d E  =  -0.00235)


--------------------------------------------------------------------------------------------------------


  
 reached required accuracy - stopping structural energy minimisation
     LOOP+:  cpu time  227.2227: real time  228.8500
    4ORBIT:  cpu time    0.0000: real time    0.0000
 


 total charge     
 
# of ion       s       p       d       tot
------------------------------------------
    1        0.729   0.441   8.105   9.275
    2        0.711   0.607   8.108   9.426
    3        0.726   0.647   8.117   9.489
    4        0.755   0.520   8.105   9.380
    5        0.739   0.444   8.138   9.321
    6        0.748   0.685   8.110   9.543
    7        0.721   0.632   8.129   9.482
    8        0.713   0.605   8.118   9.437
    9        0.750   0.676   8.107   9.533
   10        0.737   0.633   8.132   9.503
   11        0.720   0.644   8.114   9.478
   12        0.732   0.467   8.123   9.322
   13        0.773   0.526   8.099   9.398
   14        0.567   0.483   8.540   9.590
   15        0.535   0.378   8.543   9.457
   16        0.492   0.372   8.536   9.399
   17        0.554   0.581   8.532   9.667
   18        0.554   0.571   8.556   9.681
   19        0.542   0.582   8.565   9.689
   20        0.574   0.614   8.536   9.724
   21        0.559   0.442   8.537   9.538
   22        0.563   0.601   8.554   9.718
   23        0.547   0.598   8.559   9.704
   24        0.563   0.464   8.539   9.566
   25        0.567   0.468   8.540   9.575
   26        0.509   0.359   8.538   9.406
   27        0.551   0.572   8.538   9.661
   28        0.550   0.465   8.534   9.549
   29        0.551   0.562   8.519   9.632
   30        0.561   0.587   8.543   9.690
   31        0.483   0.352   8.347   9.182
   32        0.492   0.487   8.358   9.338
   33        0.466   0.439   8.338   9.243
   34        0.472   0.473   8.361   9.306
   35        0.457   0.334   8.340   9.132
   36        0.483   0.476   8.348   9.306
   37        0.485   0.348   8.340   9.173
   38        0.476   0.463   8.343   9.281
   39        0.493   0.487   8.360   9.339
   40        0.481   0.460   8.349   9.290
   41        0.492   0.480   8.332   9.304
   42        0.498   0.401   8.324   9.224
   43        0.481   0.462   8.335   9.278
   44        0.498   0.488   8.358   9.343
   45        0.473   0.452   8.350   9.276
   46        0.443   0.417   7.261   8.121
   47        0.457   0.360   7.245   8.061
   48        0.459   0.461   7.284   8.204
   49        0.444   0.425   7.257   8.126
   50        0.465   0.343   7.241   8.048
   51        0.472   0.480   7.273   8.226
   52        0.438   0.435   7.257   8.130
   53        0.482   0.402   7.266   8.149
   54        0.449   0.443   7.298   8.190
   55        0.471   0.469   7.267   8.207
   56        0.477   0.379   7.252   8.108
   57        0.458   0.453   7.278   8.189
   58        0.446   0.441   7.255   8.141
   59        0.453   0.449   7.265   8.167
   60        0.462   0.371   7.251   8.084
   61        0.452   0.349   7.240   8.041
   62        0.447   0.450   7.260   8.157
   63        0.457   0.364   7.252   8.073
   64        0.471   0.490   6.226   7.186
   65        0.451   0.474   6.189   7.115
   66        0.444   0.472   6.193   7.108
   67        0.450   0.476   6.176   7.103
   68        0.464   0.381   6.153   6.997
   69        0.446   0.446   6.150   7.042
   70        0.457   0.370   6.137   6.964
   71        0.466   0.505   6.228   7.199
   72        0.452   0.377   6.107   6.936
   73        0.429   0.319   6.067   6.814
   74        0.468   0.475   6.190   7.132
   75        0.460   0.484   6.216   7.161
   76        0.449   0.362   6.118   6.929
   77        0.468   0.379   6.158   7.005
   78        0.457   0.374   6.154   6.985
   79        0.460   0.367   6.142   6.970
   80        0.446   0.458   6.180   7.084
--------------------------------------------------
tot         42.091  37.529 611.384 691.004
 


 magnetization (x)
 
# of ion       s       p       d       tot
------------------------------------------
    1       -0.038  -0.039   0.320   0.243
    2       -0.024  -0.038   0.328   0.266
    3       -0.024  -0.045   0.342   0.273
    4       -0.014  -0.031   0.270   0.225
    5       -0.021  -0.008   0.200   0.171
    6       -0.023  -0.053   0.358   0.283
    7       -0.026  -0.043   0.334   0.265
    8       -0.018  -0.045   0.313   0.250
    9       -0.022  -0.060   0.411   0.329
   10       -0.018  -0.046   0.346   0.281
   11       -0.017  -0.044   0.347   0.285
   12       -0.018  -0.017   0.323   0.287
   13       -0.026  -0.033   0.328   0.269
   14       -0.018  -0.029   0.245   0.198
   15       -0.031  -0.030   0.287   0.226
   16       -0.028  -0.028   0.288   0.233
   17       -0.019  -0.047   0.283   0.216
   18       -0.021  -0.042   0.269   0.207
   19       -0.020  -0.035   0.239   0.184
   20       -0.028  -0.055   0.352   0.270
   21       -0.017  -0.030   0.223   0.176
   22       -0.026  -0.047   0.277   0.204
   23       -0.028  -0.050   0.305   0.227
   24       -0.018  -0.024   0.185   0.143
   25       -0.017  -0.022   0.212   0.173
   26       -0.029  -0.026   0.306   0.251
   27       -0.019  -0.039   0.245   0.187
   28       -0.020  -0.030   0.259   0.208
   29       -0.019  -0.044   0.310   0.247
   30       -0.026  -0.046   0.312   0.241
   31       -0.016  -0.021   0.743   0.707
   32       -0.031  -0.053   0.772   0.688
   33       -0.014  -0.030   0.684   0.640
   34       -0.023  -0.043   0.717   0.650
   35       -0.016  -0.022   0.734   0.696
   36       -0.018  -0.042   0.647   0.587
   37       -0.026  -0.028   0.769   0.715
   38       -0.023  -0.044   0.762   0.695
   39       -0.021  -0.049   0.714   0.644
   40       -0.017  -0.037   0.660   0.606
   41       -0.024  -0.055   0.737   0.658
   42       -0.028  -0.042   0.773   0.703
   43       -0.020  -0.048   0.731   0.662
   44       -0.031  -0.058   0.705   0.617
   45       -0.016  -0.031   0.667   0.620
   46       -0.015  -0.035   1.725   1.676
   47       -0.003  -0.020   1.812   1.789
   48       -0.011  -0.033   1.738   1.694
   49       -0.007  -0.029   1.756   1.720
   50        0.000  -0.009   1.764   1.756
   51       -0.007  -0.038   1.763   1.718
   52       -0.007  -0.022   1.797   1.767
   53       -0.009  -0.033   1.760   1.718
   54       -0.015  -0.035   1.677   1.627
   55       -0.012  -0.044   1.759   1.703
   56       -0.012  -0.034   1.806   1.761
   57       -0.010  -0.037   1.710   1.662
   58       -0.005  -0.022   1.812   1.785
   59       -0.011  -0.031   1.755   1.714
   60        0.005  -0.017   1.754   1.741
   61       -0.001  -0.019   1.867   1.847
   62       -0.004  -0.022   1.725   1.698
   63        0.001  -0.014   1.709   1.697
   64       -0.005  -0.036   2.722   2.681
   65       -0.001  -0.020   2.841   2.819
   66        0.000  -0.019   2.797   2.778
   67        0.002  -0.017   2.837   2.821
   68        0.003  -0.010   2.880   2.874
   69        0.008  -0.016   2.857   2.848
   70        0.019   0.005   2.942   2.965
   71       -0.001  -0.025   2.669   2.642
   72        0.024   0.008   3.037   3.068
   73        0.020   0.008   3.095   3.123
   74       -0.002  -0.027   2.744   2.716
   75       -0.005  -0.030   2.706   2.672
   76        0.008  -0.002   3.012   3.019
   77        0.008  -0.022   2.887   2.873
   78        0.002  -0.016   2.895   2.881
   79        0.019  -0.000   2.880   2.899
   80       -0.001  -0.026   2.823   2.795
--------------------------------------------------
tot         -1.024  -2.467  99.947  96.456
 

 total amount of memory used by VASP MPI-rank0    90128. kBytes
=======================================================================

   base      :      30000. kBytes
   nonlr-proj:      15881. kBytes
   fftplans  :       7275. kBytes
   grid      :      22246. kBytes
   one-center:        155. kBytes
   wavefun   :      14571. kBytes
 
  
  
 General timing and accounting informations for this job:
 ========================================================
  
                  Total CPU time used (sec):     4218.866
                            User time (sec):     4212.653
                          System time (sec):        6.213
                         Elapsed time (sec):     4249.589
  
                   Maximum memory used (kb):      675020.
                   Average memory used (kb):           0.
  
                          Minor page faults:      1467133
                          Major page faults:            0
                 Voluntary context switches:         5167
