       N       E                     dE             d eps       ncg     rms          rms(c)
DAV:   1     0.670963463865E+04    0.67096E+04   -0.31154E+05  2104   0.145E+03
DAV:   2     0.384376133229E+03   -0.63253E+04   -0.57850E+04  2096   0.354E+02
DAV:   3    -0.481821248922E+03   -0.86620E+03   -0.70857E+03  2268   0.158E+02
DAV:   4    -0.553021713825E+03   -0.71200E+02   -0.67432E+02  2304   0.466E+01
DAV:   5    -0.554758955251E+03   -0.17372E+01   -0.17305E+01  2408   0.761E+00    0.101E+02
RMM:   6    -0.684913922305E+03   -0.13015E+03   -0.87438E+02  2100   0.704E+01    0.179E+02
RMM:   7    -0.553142278842E+03    0.13177E+03   -0.23995E+02  2101   0.323E+01    0.122E+02
RMM:   8    -0.737331704565E+03   -0.18419E+03   -0.11709E+02  2098   0.217E+01    0.189E+02
RMM:   9    -0.614498578174E+03    0.12283E+03   -0.10124E+02  2100   0.205E+01    0.157E+02
RMM:  10    -0.486818073541E+03    0.12768E+03   -0.11506E+02  2104   0.235E+01    0.106E+02
RMM:  11    -0.507040259694E+03   -0.20222E+02   -0.12795E+02  2105   0.247E+01    0.137E+02
RMM:  12    -0.480321471039E+03    0.26719E+02   -0.76543E+01  2108   0.196E+01    0.113E+02
RMM:  13    -0.442639860578E+03    0.37682E+02   -0.42960E+01  2103   0.151E+01    0.679E+01
RMM:  14    -0.442008778956E+03    0.63108E+00   -0.21265E+01  2103   0.102E+01    0.650E+01
RMM:  15    -0.439080279554E+03    0.29285E+01   -0.15135E+01  2103   0.858E+00    0.594E+01
RMM:  16    -0.435778504767E+03    0.33018E+01   -0.97924E+00  2105   0.693E+00    0.468E+01
RMM:  17    -0.441788712254E+03   -0.60102E+01   -0.70615E+00  2103   0.542E+00    0.485E+01
RMM:  18    -0.445866669911E+03   -0.40780E+01   -0.65439E+00  2102   0.522E+00    0.414E+01
RMM:  19    -0.450467553635E+03   -0.46009E+01   -0.57243E+00  2105   0.494E+00    0.339E+01
RMM:  20    -0.459211215384E+03   -0.87437E+01   -0.46402E+00  2101   0.407E+00    0.390E+01
RMM:  21    -0.461337297954E+03   -0.21261E+01   -0.39973E+00  2103   0.412E+00    0.261E+01
RMM:  22    -0.468185137803E+03   -0.68478E+01   -0.41087E+00  2102   0.384E+00    0.291E+01
RMM:  23    -0.473031095877E+03   -0.48460E+01   -0.37624E+00  2101   0.335E+00    0.223E+01
RMM:  24    -0.476727618451E+03   -0.36965E+01   -0.22668E+00  2102   0.280E+00    0.211E+01
RMM:  25    -0.481353114586E+03   -0.46255E+01   -0.26323E+00  2100   0.258E+00    0.199E+01
RMM:  26    -0.485060023753E+03   -0.37069E+01   -0.26114E+00  2101   0.287E+00    0.209E+01
RMM:  27    -0.490385262983E+03   -0.53252E+01   -0.46203E+00  2101   0.324E+00    0.218E+01
RMM:  28    -0.492329575902E+03   -0.19443E+01   -0.30934E+00  2099   0.288E+00    0.176E+01
RMM:  29    -0.494424702288E+03   -0.20951E+01   -0.21226E+00  2102   0.242E+00    0.176E+01
RMM:  30    -0.494577027917E+03   -0.15233E+00   -0.86656E-01  2102   0.166E+00    0.111E+01
RMM:  31    -0.495292884423E+03   -0.71586E+00   -0.43784E-01  2101   0.115E+00    0.120E+01
RMM:  32    -0.495661802072E+03   -0.36892E+00   -0.30359E-01  2100   0.971E-01    0.101E+01
RMM:  33    -0.496138834272E+03   -0.47703E+00   -0.26573E-01  2101   0.905E-01    0.100E+01
RMM:  34    -0.496698441267E+03   -0.55961E+00   -0.40579E-01  2099   0.103E+00    0.872E+00
RMM:  35    -0.497051513109E+03   -0.35307E+00   -0.29269E-01  2101   0.983E-01    0.768E+00
RMM:  36    -0.497358723388E+03   -0.30721E+00   -0.20345E-01  2099   0.779E-01    0.614E+00
RMM:  37    -0.497507223791E+03   -0.14850E+00   -0.90135E-02  2101   0.577E-01    0.512E+00
RMM:  38    -0.497837072648E+03   -0.32985E+00   -0.10951E-01  2099   0.547E-01    0.499E+00
RMM:  39    -0.497979937447E+03   -0.14286E+00   -0.66737E-02  2101   0.485E-01    0.419E+00
RMM:  40    -0.498273118909E+03   -0.29318E+00   -0.81936E-02  2100   0.496E-01    0.452E+00
RMM:  41    -0.498373851797E+03   -0.10073E+00   -0.45859E-02  2101   0.414E-01    0.351E+00
RMM:  42    -0.498484313447E+03   -0.11046E+00   -0.28796E-02  2100   0.328E-01    0.353E+00
RMM:  43    -0.498568549203E+03   -0.84236E-01   -0.21192E-02  2102   0.281E-01    0.275E+00
RMM:  44    -0.498675644919E+03   -0.10710E+00   -0.24460E-02  2100   0.292E-01    0.312E+00
RMM:  45    -0.498734753891E+03   -0.59109E-01   -0.24666E-02  2100   0.291E-01    0.241E+00
RMM:  46    -0.498754820198E+03   -0.20066E-01   -0.15744E-02  2101   0.241E-01    0.254E+00
RMM:  47    -0.498760159981E+03   -0.53398E-02   -0.13280E-02  2100   0.216E-01    0.194E+00
RMM:  48    -0.498761454162E+03   -0.12942E-02   -0.76525E-03  2100   0.172E-01    0.193E+00
RMM:  49    -0.498755568668E+03    0.58855E-02   -0.59104E-03  2101   0.139E-01    0.144E+00
RMM:  50    -0.498759415478E+03   -0.38468E-02   -0.53086E-03  2100   0.139E-01    0.151E+00
RMM:  51    -0.498757201570E+03    0.22139E-02   -0.65713E-03  2101   0.144E-01    0.112E+00
RMM:  52    -0.498762860310E+03   -0.56587E-02   -0.42204E-03  2100   0.129E-01    0.106E+00
RMM:  53    -0.498760618205E+03    0.22421E-02   -0.32181E-03  2101   0.113E-01    0.682E-01
RMM:  54    -0.498766009034E+03   -0.53908E-02   -0.22089E-03  2100   0.943E-02    0.712E-01
RMM:  55    -0.498777082128E+03   -0.11073E-01   -0.13616E-03  2101   0.725E-02    0.582E-01
RMM:  56    -0.498782018489E+03   -0.49364E-02   -0.22317E-03  2100   0.924E-02    0.763E-01
RMM:  57    -0.498790465498E+03   -0.84470E-02   -0.10719E-03  2100   0.622E-02    0.629E-01
RMM:  58    -0.498797392509E+03   -0.69270E-02   -0.94123E-04  2100   0.612E-02    0.512E-01
RMM:  59    -0.498810550831E+03   -0.13158E-01   -0.10843E-03  2100   0.635E-02    0.395E-01
RMM:  60    -0.498830603971E+03   -0.20053E-01   -0.89290E-04  2101   0.537E-02    0.339E-01
RMM:  61    -0.498853950518E+03   -0.23347E-01   -0.85913E-04  2100   0.573E-02    0.482E-01
RMM:  62    -0.498860669395E+03   -0.67189E-02   -0.47287E-04  2100   0.418E-02    0.348E-01
RMM:  63    -0.498868723643E+03   -0.80542E-02   -0.32634E-04  2101   0.331E-02    0.197E-01
RMM:  64    -0.498879667950E+03   -0.10944E-01   -0.24324E-04  2100   0.272E-02    0.153E-01
RMM:  65    -0.498894986474E+03   -0.15319E-01   -0.19985E-04  2100   0.242E-02    0.180E-01
RMM:  66    -0.498912023642E+03   -0.17037E-01   -0.18185E-04  2101   0.227E-02    0.210E-01
RMM:  67    -0.498918566561E+03   -0.65429E-02   -0.70077E-05  2096   0.152E-02    0.110E-01
RMM:  68    -0.498943901219E+03   -0.25335E-01   -0.23837E-04  2100   0.202E-02    0.131E-01
RMM:  69    -0.498972868739E+03   -0.28968E-01   -0.33505E-04  2100   0.207E-02    0.108E-01
RMM:  70    -0.498986688133E+03   -0.13819E-01   -0.12260E-04  2098   0.142E-02    0.888E-02
RMM:  71    -0.498993757767E+03   -0.70696E-02   -0.85601E-05  2096   0.151E-02    0.120E-01
RMM:  72    -0.499007415346E+03   -0.13658E-01   -0.14849E-04  2097   0.150E-02    0.976E-02
RMM:  73    -0.499019798026E+03   -0.12383E-01   -0.18394E-04  2098   0.139E-02    0.661E-02
RMM:  74    -0.499026184264E+03   -0.63862E-02   -0.10201E-04  2098   0.114E-02    0.784E-02
RMM:  75    -0.499031246027E+03   -0.50618E-02   -0.84455E-05  2096   0.103E-02    0.626E-02
RMM:  76    -0.499033401915E+03   -0.21559E-02   -0.51160E-05  2096   0.120E-02    0.101E-01
RMM:  77    -0.499038129607E+03   -0.47277E-02   -0.13202E-04  2096   0.119E-02    0.423E-02
RMM:  78    -0.499039111581E+03   -0.98197E-03   -0.22137E-05  1928   0.585E-03    0.306E-02
RMM:  79    -0.499039863874E+03   -0.75229E-03   -0.11075E-05  1825   0.466E-03    0.294E-02
RMM:  80    -0.499040970079E+03   -0.11062E-02   -0.14784E-05  1768   0.434E-03    0.172E-02
RMM:  81    -0.499041084619E+03   -0.11454E-03   -0.35545E-06  1534   0.326E-03    0.171E-02
RMM:  82    -0.499041214520E+03   -0.12990E-03   -0.41237E-06  1520   0.303E-03    0.131E-02
RMM:  83    -0.499041266879E+03   -0.52360E-04   -0.28314E-06  1436   0.223E-03    0.750E-03
RMM:  84    -0.499041279496E+03   -0.12617E-04   -0.90136E-07  1312   0.165E-03    0.767E-03
RMM:  85    -0.499041287925E+03   -0.84291E-05   -0.58620E-07  1253   0.139E-03    0.491E-03
RMM:  86    -0.499041291848E+03   -0.39223E-05   -0.32107E-07  1199   0.108E-03    0.591E-03
RMM:  87    -0.499041294955E+03   -0.31073E-05   -0.29688E-07  1188   0.102E-03    0.412E-03
RMM:  88    -0.499041299364E+03   -0.44094E-05   -0.20001E-07  1130   0.728E-04    0.337E-03
RMM:  89    -0.499041302765E+03   -0.34010E-05   -0.19506E-07  1134   0.662E-04    0.326E-03
RMM:  90    -0.499041307032E+03   -0.42668E-05   -0.17314E-07  1091   0.622E-04    0.237E-03
RMM:  91    -0.499041309880E+03   -0.28480E-05   -0.82985E-08  1044   0.568E-04    0.337E-03
RMM:  92    -0.499041310731E+03   -0.85054E-06   -0.14559E-07  1037   0.552E-04
   1 F= -.53335468E+03 E0= -.53336038E+03  d E =-.533355E+03  mag=    97.2826
       N       E                     dE             d eps       ncg     rms          rms(c)
DAV:   1    -0.496931111855E+03    0.21102E+01   -0.19512E+03  2096   0.530E+01    0.161E+01
RMM:   2    -0.510694706624E+03   -0.13764E+02   -0.60851E+01  2100   0.186E+01    0.481E+01
RMM:   3    -0.506090032393E+03    0.46047E+01   -0.16594E+01  2268   0.786E+00    0.306E+01
RMM:   4    -0.508787617530E+03   -0.26976E+01   -0.40521E+00  2121   0.373E+00    0.381E+01
RMM:   5    -0.503489333002E+03    0.52983E+01   -0.22033E+00  2102   0.296E+00    0.160E+01
RMM:   6    -0.503050838987E+03    0.43849E+00   -0.12414E+00  2100   0.228E+00    0.111E+01
RMM:   7    -0.502937246635E+03    0.11359E+00   -0.53339E-01  2102   0.146E+00    0.940E+00
RMM:   8    -0.502817986909E+03    0.11926E+00   -0.36021E-01  2102   0.126E+00    0.753E+00
RMM:   9    -0.502893433312E+03   -0.75446E-01   -0.42490E-01  2102   0.131E+00    0.932E+00
RMM:  10    -0.502747374233E+03    0.14606E+00   -0.43429E-01  2101   0.134E+00    0.642E+00
RMM:  11    -0.502755171319E+03   -0.77971E-02   -0.27283E-01  2104   0.105E+00    0.694E+00
RMM:  12    -0.502637885796E+03    0.11729E+00   -0.16373E-01  2102   0.833E-01    0.337E+00
RMM:  13    -0.502643517611E+03   -0.56318E-02   -0.83624E-02  2101   0.596E-01    0.363E+00
RMM:  14    -0.502612267433E+03    0.31250E-01   -0.43988E-02  2101   0.446E-01    0.182E+00
RMM:  15    -0.502606458663E+03    0.58088E-02   -0.18037E-02  2100   0.281E-01    0.125E+00
RMM:  16    -0.502605759290E+03    0.69937E-03   -0.88692E-03  2101   0.193E-01    0.105E+00
RMM:  17    -0.502603967251E+03    0.17920E-02   -0.40615E-03  2100   0.134E-01    0.684E-01
RMM:  18    -0.502604371095E+03   -0.40384E-03   -0.27722E-03  2101   0.106E-01    0.682E-01
RMM:  19    -0.502603420002E+03    0.95109E-03   -0.17381E-03  2101   0.861E-02    0.354E-01
RMM:  20    -0.502603722731E+03   -0.30273E-03   -0.10218E-03  2103   0.644E-02    0.457E-01
RMM:  21    -0.502603265602E+03    0.45713E-03   -0.62030E-04  2100   0.518E-02    0.183E-01
RMM:  22    -0.502603323911E+03   -0.58308E-04   -0.26163E-04  2103   0.329E-02    0.189E-01
RMM:  23    -0.502603318356E+03    0.55545E-05   -0.14560E-04  2103   0.245E-02    0.147E-01
RMM:  24    -0.502603292881E+03    0.25475E-04   -0.80176E-05  2099   0.186E-02    0.102E-01
RMM:  25    -0.502603288713E+03    0.41673E-05   -0.59128E-05  2100   0.155E-02    0.106E-01
RMM:  26    -0.502603257977E+03    0.30737E-04   -0.38864E-05  2096   0.130E-02    0.632E-02
RMM:  27    -0.502603241938E+03    0.16039E-04   -0.21028E-05  2093   0.926E-03    0.595E-02
RMM:  28    -0.502603224820E+03    0.17118E-04   -0.12626E-05  2030   0.742E-03    0.284E-02
RMM:  29    -0.502603224610E+03    0.21075E-06   -0.57316E-06  1788   0.496E-03
   2 F= -.53691457E+03 E0= -.53691722E+03  d E =-.355989E+01  mag=    97.1975
       N       E                     dE             d eps       ncg     rms          rms(c)
DAV:   1    -0.502587681515E+03    0.15543E-01   -0.90317E+00  2144   0.344E+00    0.911E-01
RMM:   2    -0.502631948580E+03   -0.44267E-01   -0.17716E-01  2101   0.977E-01    0.278E+00
RMM:   3    -0.502620180995E+03    0.11768E-01   -0.57307E-02  2292   0.459E-01    0.203E+00
RMM:   4    -0.502620913633E+03   -0.73264E-03   -0.18977E-02  2101   0.274E-01    0.179E+00
RMM:   5    -0.502611496921E+03    0.94167E-02   -0.64283E-03  2101   0.171E-01    0.662E-01
RMM:   6    -0.502610686829E+03    0.81009E-03   -0.10803E-03  2108   0.641E-02    0.418E-01
RMM:   7    -0.502610915414E+03   -0.22859E-03   -0.78913E-04  2100   0.548E-02    0.546E-01
RMM:   8    -0.502610063455E+03    0.85196E-03   -0.86656E-04  2103   0.566E-02    0.292E-01
RMM:   9    -0.502610682198E+03   -0.61874E-03   -0.13906E-03  2106   0.740E-02    0.532E-01
RMM:  10    -0.502610540972E+03    0.14123E-03   -0.15356E-03  2105   0.741E-02    0.474E-01
RMM:  11    -0.502609921161E+03    0.61981E-03   -0.79229E-04  2104   0.575E-02    0.214E-01
RMM:  12    -0.502609869489E+03    0.51672E-04   -0.27617E-04  2100   0.331E-02    0.186E-01
RMM:  13    -0.502609767695E+03    0.10179E-03   -0.92862E-05  2102   0.198E-02    0.589E-02
RMM:  14    -0.502609766071E+03    0.16235E-05   -0.29320E-05  2096   0.109E-02    0.600E-02
RMM:  15    -0.502609753968E+03    0.12103E-04   -0.22323E-05  2097   0.871E-03    0.339E-02
RMM:  16    -0.502609756191E+03   -0.22233E-05   -0.15516E-05  2096   0.741E-03    0.423E-02
RMM:  17    -0.502609755735E+03    0.45593E-06   -0.15063E-05  2096   0.690E-03    0.304E-02
RMM:  18    -0.502609758524E+03   -0.27888E-05   -0.90743E-06  2063   0.591E-03    0.320E-02
RMM:  19    -0.502609759550E+03   -0.10262E-05   -0.48392E-06  1758   0.445E-03    0.224E-02
RMM:  20    -0.502609759377E+03    0.17320E-06   -0.18379E-06  1202   0.322E-03
   3 F= -.53692537E+03 E0= -.53692822E+03  d E =-.357069E+01  mag=    97.1962
       N       E                     dE             d eps       ncg     rms          rms(c)
DAV:   1    -0.502104587904E+03    0.50517E+00   -0.48317E+02  2096   0.274E+01    0.890E+00
RMM:   2    -0.504689121573E+03   -0.25845E+01   -0.11187E+01  2103   0.821E+00    0.196E+01
RMM:   3    -0.505232372411E+03   -0.54325E+00   -0.42336E+00  2194   0.413E+00    0.225E+01
RMM:   4    -0.504641884495E+03    0.59049E+00   -0.14847E+00  2105   0.249E+00    0.166E+01
RMM:   5    -0.503884558461E+03    0.75733E+00   -0.53997E-01  2102   0.151E+00    0.878E+00
RMM:   6    -0.503716171193E+03    0.16839E+00   -0.21538E-01  2100   0.930E-01    0.507E+00
RMM:   7    -0.503693828007E+03    0.22343E-01   -0.12289E-01  2101   0.704E-01    0.483E+00
RMM:   8    -0.503630487478E+03    0.63341E-01   -0.69310E-02  2101   0.556E-01    0.237E+00
RMM:   9    -0.503633938488E+03   -0.34510E-02   -0.49461E-02  2104   0.449E-01    0.278E+00
RMM:  10    -0.503625152715E+03    0.87858E-02   -0.53844E-02  2102   0.468E-01    0.251E+00
RMM:  11    -0.503629078627E+03   -0.39259E-02   -0.49666E-02  2102   0.449E-01    0.283E+00
RMM:  12    -0.503605353310E+03    0.23725E-01   -0.29778E-02  2102   0.362E-01    0.109E+00
RMM:  13    -0.503607481143E+03   -0.21278E-02   -0.10892E-02  2102   0.213E-01    0.127E+00
RMM:  14    -0.503604320569E+03    0.31606E-02   -0.56004E-03  2100   0.159E-01    0.760E-01
RMM:  15    -0.503603013800E+03    0.13068E-02   -0.21801E-03  2101   0.992E-02    0.367E-01
RMM:  16    -0.503603408134E+03   -0.39433E-03   -0.10438E-03  2101   0.660E-02    0.466E-01
RMM:  17    -0.503603050229E+03    0.35791E-03   -0.66366E-04  2101   0.541E-02    0.215E-01
RMM:  18    -0.503603271682E+03   -0.22145E-03   -0.36957E-04  2102   0.391E-02    0.235E-01
RMM:  19    -0.503603491876E+03   -0.22019E-03   -0.26062E-04  2101   0.314E-02    0.168E-01
RMM:  20    -0.503603613816E+03   -0.12194E-03   -0.15079E-04  2104   0.251E-02    0.107E-01
RMM:  21    -0.503603910268E+03   -0.29645E-03   -0.78987E-05  2104   0.170E-02    0.897E-02
RMM:  22    -0.503604017447E+03   -0.10718E-03   -0.38700E-05  2097   0.127E-02    0.437E-02
RMM:  23    -0.503604241022E+03   -0.22357E-03   -0.21400E-05  2096   0.908E-03    0.633E-02
RMM:  24    -0.503604402493E+03   -0.16147E-03   -0.12973E-05  1995   0.746E-03    0.257E-02
RMM:  25    -0.503604592185E+03   -0.18969E-03   -0.60648E-06  1816   0.502E-03    0.293E-02
RMM:  26    -0.503604759889E+03   -0.16770E-03   -0.33408E-06  1610   0.395E-03    0.174E-02
RMM:  27    -0.503604893503E+03   -0.13361E-03   -0.17479E-06  1312   0.276E-03    0.184E-02
RMM:  28    -0.503605063026E+03   -0.16952E-03   -0.15138E-06  1328   0.253E-03    0.118E-02
RMM:  29    -0.503605213880E+03   -0.15085E-03   -0.11927E-06  1275   0.210E-03    0.133E-02
RMM:  30    -0.503605490380E+03   -0.27650E-03   -0.20439E-06  1394   0.213E-03    0.111E-02
RMM:  31    -0.503605676494E+03   -0.18611E-03   -0.14139E-06  1334   0.200E-03    0.117E-02
RMM:  32    -0.503605979942E+03   -0.30345E-03   -0.26313E-06  1419   0.195E-03    0.909E-03
RMM:  33    -0.503606117108E+03   -0.13717E-03   -0.10841E-06  1303   0.164E-03    0.737E-03
RMM:  34    -0.503606393471E+03   -0.27636E-03   -0.31921E-06  1447   0.177E-03    0.837E-03
RMM:  35    -0.503606513101E+03   -0.11963E-03   -0.12859E-06  1348   0.156E-03    0.544E-03
RMM:  36    -0.503606672410E+03   -0.15931E-03   -0.25358E-06  1425   0.147E-03    0.702E-03
RMM:  37    -0.503606730472E+03   -0.58062E-04   -0.92883E-07  1329   0.131E-03    0.344E-03
RMM:  38    -0.503606770078E+03   -0.39606E-04   -0.78790E-07  1330   0.975E-04    0.471E-03
RMM:  39    -0.503606782143E+03   -0.12065E-04   -0.45756E-07  1244   0.974E-04    0.229E-03
RMM:  40    -0.503606779994E+03    0.21492E-05   -0.34392E-07  1179   0.707E-04    0.328E-03
RMM:  41    -0.503606772413E+03    0.75807E-05   -0.15727E-07  1087   0.634E-04    0.131E-03
RMM:  42    -0.503606770315E+03    0.20982E-05   -0.45609E-08   893   0.396E-04    0.157E-03
RMM:  43    -0.503606769456E+03    0.85823E-06   -0.21597E-08   789   0.327E-04
   4 F= -.53795587E+03 E0= -.53796137E+03  d E =-.103049E+01  mag=    97.1505
       N       E                     dE             d eps       ncg     rms          rms(c)
DAV:   1    -0.503540681039E+03    0.66089E-01   -0.37745E+01  2108   0.752E+00    0.234E+00
RMM:   2    -0.503717671106E+03   -0.17699E+00   -0.63092E-01  2101   0.192E+00    0.512E+00
RMM:   3    -0.503775333758E+03   -0.57663E-01   -0.27820E-01  2199   0.106E+00    0.644E+00
RMM:   4    -0.503757743084E+03    0.17591E-01   -0.10745E-01  2106   0.662E-01    0.548E+00
RMM:   5    -0.503664425224E+03    0.93318E-01   -0.39462E-02  2101   0.413E-01    0.243E+00
RMM:   6    -0.503646897004E+03    0.17528E-01   -0.14304E-02  2101   0.249E-01    0.757E-01
RMM:   7    -0.503649499682E+03   -0.26027E-02   -0.62274E-03  2101   0.158E-01    0.124E+00
RMM:   8    -0.503644878279E+03    0.46214E-02   -0.40438E-03  2102   0.132E-01    0.521E-01
RMM:   9    -0.503646507533E+03   -0.16293E-02   -0.42716E-03  2104   0.130E-01    0.908E-01
RMM:  10    -0.503645517005E+03    0.99053E-03   -0.49259E-03  2103   0.137E-01    0.778E-01
RMM:  11    -0.503644198968E+03    0.13180E-02   -0.30442E-03  2105   0.113E-01    0.498E-01
RMM:  12    -0.503643671013E+03    0.52795E-03   -0.11849E-03  2100   0.705E-02    0.318E-01
RMM:  13    -0.503643455825E+03    0.21519E-03   -0.39483E-04  2103   0.410E-02    0.167E-01
RMM:  14    -0.503643476958E+03   -0.21133E-04   -0.16313E-04  2100   0.266E-02    0.160E-01
RMM:  15    -0.503643420125E+03    0.56833E-04   -0.81422E-05  2098   0.191E-02    0.577E-02
RMM:  16    -0.503643462272E+03   -0.42147E-04   -0.41545E-05  2100   0.128E-02    0.850E-02
RMM:  17    -0.503643497882E+03   -0.35610E-04   -0.35630E-05  2100   0.114E-02    0.527E-02
RMM:  18    -0.503643535502E+03   -0.37620E-04   -0.23519E-05  2098   0.959E-03    0.512E-02
RMM:  19    -0.503643582935E+03   -0.47433E-04   -0.15076E-05  2096   0.732E-03    0.375E-02
RMM:  20    -0.503643602282E+03   -0.19347E-04   -0.61749E-06  1830   0.509E-03    0.185E-02
RMM:  21    -0.503643643715E+03   -0.41433E-04   -0.28252E-06  1530   0.366E-03    0.199E-02
RMM:  22    -0.503643665029E+03   -0.21314E-04   -0.15678E-06  1202   0.309E-03    0.919E-03
RMM:  23    -0.503643690404E+03   -0.25374E-04   -0.75566E-07  1181   0.188E-03    0.118E-02
RMM:  24    -0.503643725653E+03   -0.35249E-04   -0.57129E-07  1199   0.176E-03    0.543E-03
RMM:  25    -0.503643746377E+03   -0.20724E-04   -0.23618E-07  1176   0.103E-03    0.588E-03
RMM:  26    -0.503643776936E+03   -0.30559E-04   -0.19195E-07  1183   0.863E-04    0.452E-03
RMM:  27    -0.503643797616E+03   -0.20679E-04   -0.12951E-07  1165   0.707E-04    0.438E-03
RMM:  28    -0.503643844295E+03   -0.46679E-04   -0.24037E-07  1206   0.690E-04    0.394E-03
RMM:  29    -0.503643874152E+03   -0.29857E-04   -0.16547E-07  1159   0.695E-04    0.307E-03
RMM:  30    -0.503643932847E+03   -0.58695E-04   -0.42931E-07  1244   0.714E-04    0.401E-03
RMM:  31    -0.503643968632E+03   -0.35785E-04   -0.27248E-07  1168   0.741E-04    0.260E-03
RMM:  32    -0.503644005073E+03   -0.36441E-04   -0.32009E-07  1140   0.622E-04    0.291E-03
RMM:  33    -0.503644028928E+03   -0.23856E-04   -0.22731E-07  1108   0.625E-04    0.167E-03
RMM:  34    -0.503644049197E+03   -0.20269E-04   -0.23966E-07  1142   0.552E-04    0.239E-03
RMM:  35    -0.503644059851E+03   -0.10653E-04   -0.14625E-07  1056   0.526E-04    0.139E-03
RMM:  36    -0.503644064872E+03   -0.50210E-05   -0.96184E-08   954   0.409E-04    0.156E-03
RMM:  37    -0.503644064911E+03   -0.39487E-07   -0.73568E-08   914   0.380E-04
   5 F= -.53800780E+03 E0= -.53801357E+03  d E =-.108243E+01  mag=    97.1364
       N       E                     dE             d eps       ncg     rms          rms(c)
DAV:   1    -0.503567208114E+03    0.76857E-01   -0.11360E+02  2096   0.128E+01    0.371E+00
RMM:   2    -0.503991606468E+03   -0.42440E+00   -0.19946E+00  2101   0.344E+00    0.682E+00
RMM:   3    -0.504296602536E+03   -0.30500E+00   -0.77348E-01  2235   0.172E+00    0.106E+01
RMM:   4    -0.504098903822E+03    0.19770E+00   -0.26002E-01  2104   0.104E+00    0.772E+00
RMM:   5    -0.503909373997E+03    0.18953E+00   -0.85831E-02  2102   0.592E-01    0.275E+00
RMM:   6    -0.503890615424E+03    0.18759E-01   -0.30579E-02  2100   0.354E-01    0.149E+00
RMM:   7    -0.503890019577E+03    0.59585E-03   -0.13505E-02  2104   0.232E-01    0.169E+00
RMM:   8    -0.503882305591E+03    0.77140E-02   -0.85922E-03  2103   0.191E-01    0.907E-01
RMM:   9    -0.503886115758E+03   -0.38102E-02   -0.11588E-02  2102   0.210E-01    0.156E+00
RMM:  10    -0.503880391722E+03    0.57240E-02   -0.13650E-02  2122   0.226E-01    0.934E-01
RMM:  11    -0.503880459910E+03   -0.68188E-04   -0.89263E-03  2103   0.188E-01    0.108E+00
RMM:  12    -0.503877083545E+03    0.33764E-02   -0.38097E-03  2101   0.127E-01    0.405E-01
RMM:  13    -0.503877190440E+03   -0.10690E-03   -0.12187E-03  2103   0.706E-02    0.368E-01
RMM:  14    -0.503877101375E+03    0.89065E-04   -0.47700E-04  2100   0.465E-02    0.214E-01
RMM:  15    -0.503877076115E+03    0.25260E-04   -0.18903E-04  2100   0.287E-02    0.117E-01
RMM:  16    -0.503877298000E+03   -0.22189E-03   -0.13835E-04  2096   0.228E-02    0.144E-01
RMM:  17    -0.503877453410E+03   -0.15541E-03   -0.10763E-04  2103   0.203E-02    0.778E-02
RMM:  18    -0.503877691370E+03   -0.23796E-03   -0.78401E-05  2111   0.171E-02    0.950E-02
RMM:  19    -0.503877906408E+03   -0.21504E-03   -0.47198E-05  2111   0.128E-02    0.535E-02
RMM:  20    -0.503878015735E+03   -0.10933E-03   -0.20592E-05  2096   0.903E-03    0.512E-02
RMM:  21    -0.503878224857E+03   -0.20912E-03   -0.11540E-05  2067   0.654E-03    0.364E-02
RMM:  22    -0.503878309235E+03   -0.84378E-04   -0.47174E-06  1740   0.452E-03    0.200E-02
RMM:  23    -0.503878453868E+03   -0.14463E-03   -0.30491E-06  1577   0.360E-03    0.255E-02
RMM:  24    -0.503878613078E+03   -0.15921E-03   -0.22060E-06  1384   0.327E-03    0.128E-02
RMM:  25    -0.503878743871E+03   -0.13079E-03   -0.11882E-06  1270   0.214E-03    0.154E-02
RMM:  26    -0.503878914086E+03   -0.17021E-03   -0.13351E-06  1331   0.221E-03    0.110E-02
RMM:  27    -0.503879060220E+03   -0.14613E-03   -0.10980E-06  1288   0.185E-03    0.129E-02
RMM:  28    -0.503879408894E+03   -0.34867E-03   -0.34144E-06  1457   0.224E-03    0.109E-02
RMM:  29    -0.503879584443E+03   -0.17555E-03   -0.17250E-06  1369   0.203E-03    0.103E-02
RMM:  30    -0.503879886282E+03   -0.30184E-03   -0.42926E-06  1487   0.211E-03    0.876E-03
RMM:  31    -0.503879997762E+03   -0.11148E-03   -0.14913E-06  1365   0.173E-03    0.645E-03
RMM:  32    -0.503880122194E+03   -0.12443E-03   -0.22075E-06  1419   0.154E-03    0.673E-03
RMM:  33    -0.503880164250E+03   -0.42056E-04   -0.81995E-07  1311   0.136E-03    0.418E-03
RMM:  34    -0.503880192639E+03   -0.28389E-04   -0.98280E-07  1363   0.110E-03    0.456E-03
RMM:  35    -0.503880192731E+03   -0.92012E-07   -0.45133E-07  1256   0.993E-04
   6 F= -.53824622E+03 E0= -.53825241E+03  d E =-.238424E+00  mag=    97.1080
       N       E                     dE             d eps       ncg     rms          rms(c)
DAV:   1    -0.503863153221E+03    0.17039E-01   -0.11119E+01  2152   0.400E+00    0.113E+00
RMM:   2    -0.503906540547E+03   -0.43387E-01   -0.17983E-01  2101   0.102E+00    0.227E+00
RMM:   3    -0.503941571549E+03   -0.35031E-01   -0.69075E-02  2244   0.514E-01    0.368E+00
RMM:   4    -0.503923725851E+03    0.17846E-01   -0.25150E-02  2108   0.316E-01    0.298E+00
RMM:   5    -0.503895222953E+03    0.28503E-01   -0.12764E-02  2101   0.235E-01    0.857E-01
RMM:   6    -0.503893289312E+03    0.19336E-02   -0.26975E-03  2102   0.107E-01    0.346E-01
RMM:   7    -0.503893462591E+03   -0.17328E-03   -0.10559E-03  2102   0.645E-02    0.514E-01
RMM:   8    -0.503892577720E+03    0.88487E-03   -0.79612E-04  2104   0.564E-02    0.251E-01
RMM:   9    -0.503893140842E+03   -0.56312E-03   -0.12196E-03  2103   0.690E-02    0.526E-01
RMM:  10    -0.503892453951E+03    0.68689E-03   -0.13749E-03  2117   0.702E-02    0.350E-01
RMM:  11    -0.503892141612E+03    0.31234E-03   -0.60761E-04  2102   0.501E-02    0.204E-01
RMM:  12    -0.503892076049E+03    0.65563E-04   -0.20584E-04  2101   0.283E-02    0.130E-01
RMM:  13    -0.503892055766E+03    0.20283E-04   -0.74405E-05  2099   0.176E-02    0.587E-02
RMM:  14    -0.503892091667E+03   -0.35901E-04   -0.25668E-05  2097   0.104E-02    0.629E-02
RMM:  15    -0.503892112313E+03   -0.20646E-04   -0.15978E-05  2096   0.808E-03    0.319E-02
RMM:  16    -0.503892148048E+03   -0.35735E-04   -0.10699E-05  2095   0.634E-03    0.342E-02
RMM:  17    -0.503892207644E+03   -0.59596E-04   -0.11548E-05  2096   0.604E-03    0.286E-02
RMM:  18    -0.503892248889E+03   -0.41245E-04   -0.70928E-06  1943   0.519E-03    0.247E-02
RMM:  19    -0.503892298016E+03   -0.49128E-04   -0.38958E-06  1628   0.394E-03    0.217E-02
RMM:  20    -0.503892316674E+03   -0.18658E-04   -0.18342E-06  1214   0.322E-03    0.104E-02
RMM:  21    -0.503892350782E+03   -0.34108E-04   -0.91614E-07  1200   0.210E-03    0.119E-02
RMM:  22    -0.503892373806E+03   -0.23024E-04   -0.52596E-07  1179   0.175E-03    0.598E-03
RMM:  23    -0.503892398209E+03   -0.24403E-04   -0.24944E-07  1182   0.104E-03    0.649E-03
RMM:  24    -0.503892436116E+03   -0.37907E-04   -0.25894E-07  1199   0.994E-04    0.478E-03
RMM:  25    -0.503892466314E+03   -0.30198E-04   -0.17382E-07  1186   0.732E-04    0.523E-03
RMM:  26    -0.503892506974E+03   -0.40659E-04   -0.24002E-07  1201   0.802E-04    0.382E-03
RMM:  27    -0.503892547783E+03   -0.40810E-04   -0.26388E-07  1198   0.753E-04    0.464E-03
RMM:  28    -0.503892612286E+03   -0.64503E-04   -0.59510E-07  1296   0.901E-04    0.367E-03
RMM:  29    -0.503892648870E+03   -0.36584E-04   -0.36058E-07  1209   0.807E-04    0.414E-03
RMM:  30    -0.503892687876E+03   -0.39006E-04   -0.49670E-07  1271   0.800E-04    0.234E-03
RMM:  31    -0.503892703867E+03   -0.15991E-04   -0.21258E-07  1114   0.641E-04    0.271E-03
RMM:  32    -0.503892719057E+03   -0.15190E-04   -0.26765E-07  1159   0.611E-04    0.185E-03
RMM:  33    -0.503892722101E+03   -0.30444E-05   -0.10870E-07  1063   0.489E-04    0.169E-03
RMM:  34    -0.503892721076E+03    0.10254E-05   -0.10308E-07   978   0.419E-04    0.130E-03
RMM:  35    -0.503892719841E+03    0.12350E-05   -0.31902E-08   836   0.368E-04    0.996E-04
RMM:  36    -0.503892718081E+03    0.17595E-05   -0.16627E-08   592   0.288E-04    0.904E-04
RMM:  37    -0.503892717434E+03    0.64730E-06   -0.52800E-09   495   0.264E-04
   7 F= -.53826064E+03 E0= -.53826689E+03  d E =-.252835E+00  mag=    97.0991
       N       E                     dE             d eps       ncg     rms          rms(c)
DAV:   1    -0.503872400256E+03    0.20318E-01   -0.34588E+01  2104   0.695E+00    0.197E+00
RMM:   2    -0.503976397444E+03   -0.10400E+00   -0.57082E-01  2102   0.180E+00    0.259E+00
RMM:   3    -0.504125437928E+03   -0.14904E+00   -0.21123E-01  2245   0.886E-01    0.649E+00
RMM:   4    -0.504017726494E+03    0.10771E+00   -0.70413E-02  2105   0.540E-01    0.382E+00
RMM:   5    -0.503973735542E+03    0.43991E-01   -0.25551E-02  2100   0.322E-01    0.107E+00
RMM:   6    -0.503971091859E+03    0.26437E-02   -0.65415E-03  2101   0.163E-01    0.698E-01
RMM:   7    -0.503969509838E+03    0.15820E-02   -0.26925E-03  2103   0.102E-01    0.627E-01
RMM:   8    -0.503968530363E+03    0.97948E-03   -0.20773E-03  2107   0.920E-02    0.525E-01
RMM:   9    -0.503969090623E+03   -0.56026E-03   -0.38138E-03  2102   0.116E-01    0.793E-01
RMM:  10    -0.503967869802E+03    0.12208E-02   -0.40736E-03  2136   0.123E-01    0.567E-01
RMM:  11    -0.503967275395E+03    0.59441E-03   -0.21484E-03  2101   0.917E-02    0.436E-01
RMM:  12    -0.503966707186E+03    0.56821E-03   -0.73526E-04  2103   0.556E-02    0.160E-01
RMM:  13    -0.503966736104E+03   -0.28918E-04   -0.17245E-04  2103   0.263E-02    0.139E-01
RMM:  14    -0.503966800860E+03   -0.64756E-04   -0.83681E-05  2098   0.186E-02    0.102E-01
RMM:  15    -0.503966829586E+03   -0.28726E-04   -0.41047E-05  2101   0.132E-02    0.559E-02
RMM:  16    -0.503966952317E+03   -0.12273E-03   -0.39173E-05  2098   0.114E-02    0.735E-02
RMM:  17    -0.503967051332E+03   -0.99014E-04   -0.33833E-05  2112   0.106E-02    0.408E-02
RMM:  18    -0.503967169102E+03   -0.11777E-03   -0.23077E-05  2109   0.896E-03    0.504E-02
RMM:  19    -0.503967261878E+03   -0.92776E-04   -0.12395E-05  2095   0.660E-03    0.264E-02
RMM:  20    -0.503967314657E+03   -0.52779E-04   -0.45727E-06  1730   0.432E-03    0.246E-02
RMM:  21    -0.503967396854E+03   -0.82197E-04   -0.24133E-06  1442   0.343E-03    0.197E-02
RMM:  22    -0.503967438970E+03   -0.42117E-04   -0.12284E-06  1208   0.256E-03    0.132E-02
RMM:  23    -0.503967527100E+03   -0.88130E-04   -0.99496E-07  1273   0.192E-03    0.135E-02
RMM:  24    -0.503967602664E+03   -0.75564E-04   -0.88181E-07  1240   0.197E-03    0.106E-02
RMM:  25    -0.503967705121E+03   -0.10246E-03   -0.92538E-07  1314   0.161E-03    0.117E-02
RMM:  26    -0.503967801495E+03   -0.96374E-04   -0.90579E-07  1284   0.171E-03    0.911E-03
RMM:  27    -0.503967924106E+03   -0.12261E-03   -0.12899E-06  1369   0.165E-03    0.108E-02
RMM:  28    -0.503968064058E+03   -0.13995E-03   -0.17652E-06  1396   0.181E-03    0.575E-03
RMM:  29    -0.503968193673E+03   -0.12961E-03   -0.21107E-06  1414   0.174E-03    0.939E-03
RMM:  30    -0.503968277207E+03   -0.83534E-04   -0.16574E-06  1387   0.175E-03    0.486E-03
RMM:  31    -0.503968319251E+03   -0.42044E-04   -0.94503E-07  1325   0.124E-03    0.637E-03
RMM:  32    -0.503968343605E+03   -0.24355E-04   -0.71855E-07  1311   0.122E-03    0.298E-03
RMM:  33    -0.503968349838E+03   -0.62324E-05   -0.34483E-07  1216   0.850E-04    0.393E-03
RMM:  34    -0.503968346103E+03    0.37351E-05   -0.35642E-07  1226   0.817E-04    0.233E-03
RMM:  35    -0.503968343122E+03    0.29810E-05   -0.11486E-07  1076   0.599E-04    0.209E-03
RMM:  36    -0.503968339428E+03    0.36932E-05   -0.71846E-08   968   0.443E-04    0.139E-03
RMM:  37    -0.503968338822E+03    0.60677E-06   -0.22533E-08   789   0.354E-04
   8 F= -.53833065E+03 E0= -.53833759E+03  d E =-.700142E-01  mag=    97.0742
       N       E                     dE             d eps       ncg     rms          rms(c)
DAV:   1    -0.503951568588E+03    0.16771E-01   -0.10910E+01  2104   0.390E+00    0.109E+00
RMM:   2    -0.503984009252E+03   -0.32441E-01   -0.17527E-01  2102   0.992E-01    0.142E+00
RMM:   3    -0.504038816624E+03   -0.54807E-01   -0.63961E-02  2250   0.485E-01    0.387E+00
RMM:   4    -0.503997181768E+03    0.41635E-01   -0.21796E-02  2106   0.299E-01    0.217E+00
RMM:   5    -0.503982957529E+03    0.14224E-01   -0.89209E-03  2100   0.193E-01    0.549E-01
RMM:   6    -0.503982226037E+03    0.73149E-03   -0.17791E-03  2102   0.847E-02    0.341E-01
RMM:   7    -0.503981773299E+03    0.45274E-03   -0.71707E-04  2100   0.516E-02    0.331E-01
RMM:   8    -0.503981507082E+03    0.26622E-03   -0.65008E-04  2109   0.508E-02    0.296E-01
RMM:   9    -0.503981836499E+03   -0.32942E-03   -0.13458E-03  2103   0.687E-02    0.516E-01
RMM:  10    -0.503981159378E+03    0.67712E-03   -0.12852E-03  2139   0.688E-02    0.291E-01
RMM:  11    -0.503980996774E+03    0.16260E-03   -0.57109E-04  2101   0.473E-02    0.221E-01
RMM:  12    -0.503980861678E+03    0.13510E-03   -0.19210E-04  2104   0.282E-02    0.869E-02
RMM:  13    -0.503980869339E+03   -0.76606E-05   -0.44732E-05  2097   0.135E-02    0.645E-02
RMM:  14    -0.503980907303E+03   -0.37964E-04   -0.22688E-05  2097   0.951E-03    0.540E-02
RMM:  15    -0.503980926884E+03   -0.19581E-04   -0.12631E-05  2096   0.720E-03    0.307E-02
RMM:  16    -0.503980980322E+03   -0.53437E-04   -0.12712E-05  2096   0.637E-03    0.390E-02
RMM:  17    -0.503981026920E+03   -0.46598E-04   -0.10782E-05  2097   0.588E-03    0.219E-02
RMM:  18    -0.503981076216E+03   -0.49297E-04   -0.66614E-06  1944   0.485E-03    0.270E-02
RMM:  19    -0.503981115209E+03   -0.38993E-04   -0.34349E-06  1589   0.386E-03    0.138E-02
RMM:  20    -0.503981138083E+03   -0.22874E-04   -0.14097E-06  1213   0.273E-03    0.130E-02
RMM:  21    -0.503981173286E+03   -0.35202E-04   -0.76556E-07  1209   0.203E-03    0.910E-03
RMM:  22    -0.503981191856E+03   -0.18570E-04   -0.36046E-07  1178   0.134E-03    0.776E-03
RMM:  23    -0.503981229720E+03   -0.37864E-04   -0.33252E-07  1203   0.108E-03    0.770E-03
RMM:  24    -0.503981263177E+03   -0.33457E-04   -0.30310E-07  1202   0.109E-03    0.627E-03
RMM:  25    -0.503981311097E+03   -0.47920E-04   -0.38218E-07  1231   0.964E-04    0.712E-03
RMM:  26    -0.503981359933E+03   -0.48837E-04   -0.43345E-07  1245   0.106E-03    0.521E-03
RMM:  27    -0.503981411277E+03   -0.51344E-04   -0.52274E-07  1272   0.101E-03    0.616E-03
RMM:  28    -0.503981472038E+03   -0.60761E-04   -0.80681E-07  1336   0.112E-03    0.316E-03
RMM:  29    -0.503981512851E+03   -0.40813E-04   -0.64457E-07  1294   0.991E-04    0.495E-03
RMM:  30    -0.503981537534E+03   -0.24683E-04   -0.46893E-07  1250   0.979E-04    0.251E-03
RMM:  31    -0.503981549327E+03   -0.11793E-04   -0.26793E-07  1147   0.696E-04    0.337E-03
RMM:  32    -0.503981555182E+03   -0.58548E-05   -0.23616E-07  1172   0.682E-04    0.166E-03
RMM:  33    -0.503981555296E+03   -0.11462E-06   -0.94628E-08  1054   0.493E-04
   9 F= -.53834110E+03 E0= -.53834850E+03  d E =-.804665E-01  mag=    97.0619
       N       E                     dE             d eps       ncg     rms          rms(c)
DAV:   1    -0.503916537741E+03    0.65017E-01   -0.36180E+01  2096   0.722E+00    0.232E+00
RMM:   2    -0.504049718768E+03   -0.13318E+00   -0.61653E-01  2102   0.186E+00    0.361E+00
RMM:   3    -0.504240962692E+03   -0.19124E+00   -0.27102E-01  2215   0.102E+00    0.788E+00
RMM:   4    -0.504102753598E+03    0.13821E+00   -0.94702E-02  2104   0.624E-01    0.432E+00
RMM:   5    -0.504034967536E+03    0.67786E-01   -0.33713E-02  2100   0.375E-01    0.136E+00
RMM:   6    -0.504031886862E+03    0.30807E-02   -0.10543E-02  2100   0.210E-01    0.969E-01
RMM:   7    -0.504030403917E+03    0.14829E-02   -0.46152E-03  2102   0.136E-01    0.879E-01
RMM:   8    -0.504028122618E+03    0.22813E-02   -0.26138E-03  2104   0.106E-01    0.466E-01
RMM:   9    -0.504028371309E+03   -0.24869E-03   -0.33125E-03  2102   0.110E-01    0.695E-01
RMM:  10    -0.504027635770E+03    0.73554E-03   -0.39208E-03  2110   0.120E-01    0.588E-01
RMM:  11    -0.504027134524E+03    0.50125E-03   -0.26452E-03  2103   0.101E-01    0.502E-01
RMM:  12    -0.504026314474E+03    0.82005E-03   -0.10433E-03  2101   0.664E-02    0.170E-01
RMM:  13    -0.504026384469E+03   -0.69995E-04   -0.28226E-04  2103   0.339E-02    0.191E-01
RMM:  14    -0.504026369024E+03    0.15445E-04   -0.12786E-04  2100   0.238E-02    0.114E-01
RMM:  15    -0.504026377891E+03   -0.88666E-05   -0.55206E-05  2100   0.155E-02    0.677E-02
RMM:  16    -0.504026460545E+03   -0.82654E-04   -0.36866E-05  2098   0.116E-02    0.643E-02
RMM:  17    -0.504026516912E+03   -0.56367E-04   -0.26034E-05  2099   0.994E-03    0.375E-02
RMM:  18    -0.504026610270E+03   -0.93358E-04   -0.19605E-05  2098   0.826E-03    0.502E-02
RMM:  19    -0.504026674894E+03   -0.64624E-04   -0.11918E-05  2094   0.658E-03    0.215E-02
RMM:  20    -0.504026732793E+03   -0.57898E-04   -0.53878E-06  1780   0.465E-03    0.251E-02
RMM:  21    -0.504026798864E+03   -0.66071E-04   -0.28255E-06  1537   0.374E-03    0.159E-02
RMM:  22    -0.504026845727E+03   -0.46863E-04   -0.15446E-06  1242   0.274E-03    0.165E-02
RMM:  23    -0.504026906488E+03   -0.60761E-04   -0.98305E-07  1237   0.217E-03    0.113E-02
RMM:  24    -0.504026952402E+03   -0.45915E-04   -0.70658E-07  1208   0.176E-03    0.118E-02
RMM:  25    -0.504027035253E+03   -0.82850E-04   -0.77870E-07  1286   0.157E-03    0.103E-02
RMM:  26    -0.504027085459E+03   -0.50206E-04   -0.53169E-07  1213   0.143E-03    0.922E-03
RMM:  27    -0.504027231298E+03   -0.14584E-03   -0.17207E-06  1394   0.160E-03    0.953E-03
RMM:  28    -0.504027313330E+03   -0.82032E-04   -0.10487E-06  1318   0.169E-03    0.727E-03
RMM:  29    -0.504027451606E+03   -0.13828E-03   -0.25092E-06  1442   0.176E-03    0.925E-03
RMM:  30    -0.504027516222E+03   -0.64616E-04   -0.12357E-06  1355   0.164E-03    0.475E-03
RMM:  31    -0.504027567454E+03   -0.51232E-04   -0.11463E-06  1368   0.124E-03    0.572E-03
RMM:  32    -0.504027587992E+03   -0.20538E-04   -0.54606E-07  1272   0.117E-03    0.278E-03
RMM:  33    -0.504027599541E+03   -0.11549E-04   -0.48273E-07  1278   0.868E-04    0.399E-03
RMM:  34    -0.504027598906E+03    0.63496E-06   -0.30315E-07  1196   0.861E-04
  10 F= -.53837978E+03 E0= -.53838804E+03  d E =-.386796E-01  mag=    97.0459
       N       E                     dE             d eps       ncg     rms          rms(c)
DAV:   1    -0.504027518264E+03    0.81277E-04   -0.35250E-01  2160   0.711E-01    0.224E-01
RMM:   2    -0.504028666388E+03   -0.11481E-02   -0.54816E-03  2103   0.172E-01    0.296E-01
RMM:   3    -0.504030233424E+03   -0.15670E-02   -0.25400E-03  2205   0.996E-02    0.725E-01
RMM:   4    -0.504028931396E+03    0.13020E-02   -0.96009E-04  2102   0.644E-02    0.294E-01
RMM:   5    -0.504028641271E+03    0.29012E-03   -0.18753E-04  2105   0.272E-02    0.125E-01
RMM:   6    -0.504028612185E+03    0.29087E-04   -0.62405E-05  2096   0.159E-02    0.753E-02
RMM:   7    -0.504028604221E+03    0.79637E-05   -0.31390E-05  2102   0.110E-02    0.775E-02
RMM:   8    -0.504028583872E+03    0.20349E-04   -0.23295E-05  2096   0.970E-03    0.433E-02
RMM:   9    -0.504028593652E+03   -0.97800E-05   -0.35121E-05  2102   0.112E-02    0.806E-02
RMM:  10    -0.504028573955E+03    0.19697E-04   -0.40090E-05  2105   0.119E-02    0.517E-02
RMM:  11    -0.504028570308E+03    0.36470E-05   -0.22332E-05  2096   0.938E-03    0.451E-02
RMM:  12    -0.504028563887E+03    0.64210E-05   -0.78653E-06  1894   0.576E-03    0.165E-02
RMM:  13    -0.504028564215E+03   -0.32863E-06   -0.14790E-06  1184   0.275E-03
  11 F= -.53838008E+03 E0= -.53838841E+03  d E =-.389746E-01  mag=    97.0455
       N       E                     dE             d eps       ncg     rms          rms(c)
DAV:   1    -0.504003928729E+03    0.24635E-01   -0.14388E+01  2096   0.458E+00    0.157E+00
RMM:   2    -0.504071566589E+03   -0.67638E-01   -0.23642E-01  2102   0.114E+00    0.292E+00
RMM:   3    -0.504158961978E+03   -0.87395E-01   -0.11145E-01  2196   0.656E-01    0.542E+00
RMM:   4    -0.504096826672E+03    0.62135E-01   -0.43663E-02  2104   0.422E-01    0.351E+00
RMM:   5    -0.504054264116E+03    0.42563E-01   -0.21208E-02  2100   0.305E-01    0.106E+00
RMM:   6    -0.504051499722E+03    0.27644E-02   -0.47576E-03  2101   0.143E-01    0.493E-01
RMM:   7    -0.504051578892E+03   -0.79170E-04   -0.17553E-03  2102   0.836E-02    0.584E-01
RMM:   8    -0.504050481990E+03    0.10969E-02   -0.10236E-03  2103   0.656E-02    0.265E-01
RMM:   9    -0.504050699919E+03   -0.21793E-03   -0.10787E-03  2101   0.643E-02    0.446E-01
RMM:  10    -0.504050235694E+03    0.46423E-03   -0.14000E-03  2102   0.703E-02    0.302E-01
RMM:  11    -0.504050257023E+03   -0.21329E-04   -0.94350E-04  2103   0.601E-02    0.369E-01
RMM:  12    -0.504049832815E+03    0.42421E-03   -0.43509E-04  2101   0.423E-02    0.114E-01
RMM:  13    -0.504049840981E+03   -0.81665E-05   -0.11376E-04  2100   0.214E-02    0.116E-01
RMM:  14    -0.504049830421E+03    0.10560E-04   -0.50023E-05  2098   0.147E-02    0.755E-02
RMM:  15    -0.504049821742E+03    0.86793E-05   -0.20670E-05  2096   0.955E-03    0.369E-02
RMM:  16    -0.504049843992E+03   -0.22250E-04   -0.12887E-05  2096   0.684E-03    0.378E-02
RMM:  17    -0.504049859571E+03   -0.15579E-04   -0.90219E-06  2058   0.590E-03    0.230E-02
RMM:  18    -0.504049892684E+03   -0.33114E-04   -0.73491E-06  2020   0.503E-03    0.325E-02
RMM:  19    -0.504049912446E+03   -0.19762E-04   -0.44350E-06  1734   0.426E-03    0.139E-02
RMM:  20    -0.504049933275E+03   -0.20828E-04   -0.21005E-06  1309   0.319E-03    0.199E-02
RMM:  21    -0.504049954520E+03   -0.21245E-04   -0.14220E-06  1207   0.285E-03    0.105E-02
RMM:  22    -0.504049970711E+03   -0.16191E-04   -0.64812E-07  1186   0.181E-03    0.982E-03
RMM:  23    -0.504049994650E+03   -0.23939E-04   -0.44338E-07  1202   0.150E-03    0.663E-03
RMM:  24    -0.504050012481E+03   -0.17831E-04   -0.27419E-07  1186   0.111E-03    0.697E-03
RMM:  25    -0.504050041375E+03   -0.28894E-04   -0.25847E-07  1208   0.956E-04    0.558E-03
RMM:  26    -0.504050061386E+03   -0.20011E-04   -0.18184E-07  1185   0.800E-04    0.572E-03
RMM:  27    -0.504050113272E+03   -0.51886E-04   -0.51996E-07  1270   0.925E-04    0.477E-03
RMM:  28    -0.504050147770E+03   -0.34498E-04   -0.41040E-07  1237   0.102E-03    0.526E-03
RMM:  29    -0.504050202924E+03   -0.55154E-04   -0.89819E-07  1341   0.108E-03    0.451E-03
RMM:  30    -0.504050222951E+03   -0.20028E-04   -0.33379E-07  1203   0.914E-04    0.358E-03
RMM:  31    -0.504050248103E+03   -0.25151E-04   -0.48870E-07  1280   0.825E-04    0.335E-03
RMM:  32    -0.504050256629E+03   -0.85261E-05   -0.18853E-07  1136   0.705E-04    0.199E-03
RMM:  33    -0.504050264301E+03   -0.76727E-05   -0.21019E-07  1142   0.585E-04    0.272E-03
RMM:  34    -0.504050266431E+03   -0.21294E-05   -0.14758E-07  1107   0.575E-04    0.128E-03
RMM:  35    -0.504050266269E+03    0.16209E-06   -0.66931E-08   965   0.408E-04
  12 F= -.53839951E+03 E0= -.53840812E+03  d E =-.194316E-01  mag=    97.0379
       N       E                     dE             d eps       ncg     rms          rms(c)
DAV:   1    -0.504044609353E+03    0.56571E-02   -0.26347E+00  2124   0.196E+00    0.668E-01
RMM:   2    -0.504056024800E+03   -0.11415E-01   -0.41284E-02  2102   0.469E-01    0.114E+00
RMM:   3    -0.504072827210E+03   -0.16802E-01   -0.20307E-02  2180   0.281E-01    0.234E+00
RMM:   4    -0.504060775940E+03    0.12051E-01   -0.78958E-03  2102   0.181E-01    0.143E+00
RMM:   5    -0.504053678487E+03    0.70975E-02   -0.34331E-03  2101   0.122E-01    0.431E-01
RMM:   6    -0.504053235303E+03    0.44318E-03   -0.74871E-04  2101   0.563E-02    0.188E-01
RMM:   7    -0.504053249534E+03   -0.14231E-04   -0.27869E-04  2105   0.332E-02    0.232E-01
RMM:   8    -0.504053066852E+03    0.18268E-03   -0.18114E-04  2101   0.271E-02    0.114E-01
RMM:   9    -0.504053116934E+03   -0.50082E-04   -0.20904E-04  2100   0.281E-02    0.198E-01
RMM:  10    -0.504053019898E+03    0.97036E-04   -0.26500E-04  2103   0.302E-02    0.127E-01
RMM:  11    -0.504053016496E+03    0.34014E-05   -0.15982E-04  2102   0.248E-02    0.151E-01
RMM:  12    -0.504052941303E+03    0.75193E-04   -0.69928E-05  2101   0.169E-02    0.453E-02
RMM:  13    -0.504052939000E+03    0.23033E-05   -0.13601E-05  2026   0.737E-03    0.318E-02
RMM:  14    -0.504052940394E+03   -0.13939E-05   -0.52563E-06  1804   0.470E-03    0.270E-02
RMM:  15    -0.504052939898E+03    0.49583E-06   -0.29523E-06  1538   0.383E-03
  13 F= -.53840136E+03 E0= -.53841007E+03  d E =-.212833E-01  mag=    97.0365
       N       E                     dE             d eps       ncg     rms          rms(c)
DAV:   1    -0.504038950698E+03    0.13990E-01   -0.64765E+00  2096   0.302E+00    0.104E+00
RMM:   2    -0.504074578661E+03   -0.35628E-01   -0.11177E-01  2101   0.776E-01    0.221E+00
RMM:   3    -0.504106127362E+03   -0.31549E-01   -0.49941E-02  2220   0.437E-01    0.349E+00
RMM:   4    -0.504083471021E+03    0.22656E-01   -0.20164E-02  2103   0.283E-01    0.253E+00
RMM:   5    -0.504061764161E+03    0.21707E-01   -0.11179E-02  2100   0.222E-01    0.649E-01
RMM:   6    -0.504060760816E+03    0.10033E-02   -0.18975E-03  2101   0.893E-02    0.318E-01
RMM:   7    -0.504060757340E+03    0.34764E-05   -0.72548E-04  2103   0.536E-02    0.359E-01
RMM:   8    -0.504060303654E+03    0.45369E-03   -0.45772E-04  2105   0.432E-02    0.188E-01
RMM:   9    -0.504060394064E+03   -0.90410E-04   -0.53080E-04  2102   0.449E-02    0.309E-01
RMM:  10    -0.504060211300E+03    0.18276E-03   -0.67961E-04  2104   0.484E-02    0.228E-01
RMM:  11    -0.504060221248E+03   -0.99487E-05   -0.45806E-04  2102   0.417E-02    0.268E-01
RMM:  12    -0.504060010890E+03    0.21036E-03   -0.20703E-04  2104   0.287E-02    0.805E-02
RMM:  13    -0.504060004807E+03    0.60825E-05   -0.46516E-05  2102   0.138E-02    0.538E-02
RMM:  14    -0.504060016516E+03   -0.11709E-04   -0.19977E-05  2096   0.909E-03    0.555E-02
RMM:  15    -0.504060016035E+03    0.48107E-06   -0.96887E-06  2009   0.656E-03
  14 F= -.53840965E+03 E0= -.53841871E+03  d E =-.829275E-02  mag=    97.0337
       N       E                     dE             d eps       ncg     rms          rms(c)
DAV:   1    -0.504048581197E+03    0.11435E-01   -0.34822E+00  2096   0.222E+00    0.763E-01
RMM:   2    -0.504067312719E+03   -0.18732E-01   -0.59567E-02  2102   0.564E-01    0.159E+00
RMM:   3    -0.504084672683E+03   -0.17360E-01   -0.27097E-02  2218   0.322E-01    0.257E+00
RMM:   4    -0.504072496481E+03    0.12176E-01   -0.10823E-02  2104   0.208E-01    0.185E+00
RMM:   5    -0.504060844982E+03    0.11651E-01   -0.58450E-03  2100   0.160E-01    0.471E-01
RMM:   6    -0.504060310482E+03    0.53450E-03   -0.99254E-04  2101   0.646E-02    0.223E-01
RMM:   7    -0.504060322564E+03   -0.12082E-04   -0.38145E-04  2103   0.388E-02    0.263E-01
RMM:   8    -0.504060075301E+03    0.24726E-03   -0.24457E-04  2105   0.313E-02    0.137E-01
RMM:   9    -0.504060137569E+03   -0.62268E-04   -0.28697E-04  2101   0.329E-02    0.232E-01
RMM:  10    -0.504060045902E+03    0.91666E-04   -0.36622E-04  2102   0.356E-02    0.163E-01
RMM:  11    -0.504060064867E+03   -0.18964E-04   -0.24085E-04  2101   0.303E-02    0.195E-01
RMM:  12    -0.504059961214E+03    0.10365E-03   -0.10746E-04  2103   0.207E-02    0.566E-02
RMM:  13    -0.504059963432E+03   -0.22181E-05   -0.21651E-05  2096   0.936E-03    0.361E-02
RMM:  14    -0.504059981589E+03   -0.18157E-04   -0.91793E-06  2026   0.611E-03    0.380E-02
RMM:  15    -0.504059991243E+03   -0.96549E-05   -0.47602E-06  1750   0.467E-03    0.156E-02
RMM:  16    -0.504060013314E+03   -0.22070E-04   -0.31905E-06  1514   0.364E-03    0.197E-02
RMM:  17    -0.504060036539E+03   -0.23225E-04   -0.28009E-06  1360   0.366E-03    0.124E-02
RMM:  18    -0.504060067695E+03   -0.31156E-04   -0.23927E-06  1310   0.325E-03    0.165E-02
RMM:  19    -0.504060092256E+03   -0.24560E-04   -0.16210E-06  1195   0.295E-03    0.979E-03
RMM:  20    -0.504060105076E+03   -0.12820E-04   -0.70099E-07  1169   0.185E-03    0.772E-03
RMM:  21    -0.504060128675E+03   -0.23599E-04   -0.41524E-07  1186   0.144E-03    0.596E-03
RMM:  22    -0.504060142843E+03   -0.14168E-04   -0.20941E-07  1169   0.102E-03    0.498E-03
RMM:  23    -0.504060167941E+03   -0.25098E-04   -0.18102E-07  1188   0.789E-04    0.445E-03
RMM:  24    -0.504060186627E+03   -0.18687E-04   -0.13686E-07  1167   0.715E-04    0.417E-03
RMM:  25    -0.504060221947E+03   -0.35320E-04   -0.23847E-07  1201   0.688E-04    0.430E-03
RMM:  26    -0.504060246014E+03   -0.24067E-04   -0.18206E-07  1170   0.726E-04    0.381E-03
RMM:  27    -0.504060290002E+03   -0.43988E-04   -0.44227E-07  1271   0.745E-04    0.377E-03
RMM:  28    -0.504060316223E+03   -0.26220E-04   -0.28861E-07  1196   0.774E-04    0.264E-03
RMM:  29    -0.504060344907E+03   -0.28684E-04   -0.42320E-07  1247   0.719E-04    0.349E-03
RMM:  30    -0.504060357574E+03   -0.12667E-04   -0.21379E-07  1139   0.671E-04    0.173E-03
RMM:  31    -0.504060364289E+03   -0.67150E-05   -0.14511E-07  1037   0.498E-04    0.231E-03
RMM:  32    -0.504060366659E+03   -0.23699E-05   -0.14392E-07  1045   0.484E-04    0.101E-03
RMM:  33    -0.504060366130E+03    0.52827E-06   -0.48183E-08   869   0.365E-04
  15 F= -.53841104E+03 E0= -.53842038E+03  d E =-.967711E-02  mag=    97.0276
       N       E                     dE             d eps       ncg     rms          rms(c)
DAV:   1    -0.504034095258E+03    0.26271E-01   -0.78058E+00  2112   0.336E+00    0.124E+00
RMM:   2    -0.504078543010E+03   -0.44448E-01   -0.12924E-01  2102   0.835E-01    0.246E+00
RMM:   3    -0.504130664599E+03   -0.52122E-01   -0.66137E-02  2188   0.507E-01    0.431E+00
RMM:   4    -0.504092051601E+03    0.38613E-01   -0.27293E-02  2104   0.333E-01    0.288E+00
RMM:   5    -0.504063739378E+03    0.28312E-01   -0.14068E-02  2100   0.250E-01    0.755E-01
RMM:   6    -0.504062462979E+03    0.12764E-02   -0.25862E-03  2102   0.105E-01    0.361E-01
RMM:   7    -0.504062455310E+03    0.76688E-05   -0.91673E-04  2102   0.601E-02    0.408E-01
RMM:   8    -0.504061873435E+03    0.58187E-03   -0.54477E-04  2104   0.478E-02    0.204E-01
RMM:   9    -0.504061906981E+03   -0.33546E-04   -0.57686E-04  2103   0.469E-02    0.310E-01
RMM:  10    -0.504061708799E+03    0.19818E-03   -0.73719E-04  2103   0.511E-02    0.247E-01
RMM:  11    -0.504061691242E+03    0.17557E-04   -0.53181E-04  2102   0.448E-02    0.284E-01
RMM:  12    -0.504061445665E+03    0.24558E-03   -0.25135E-04  2102   0.317E-02    0.864E-02
RMM:  13    -0.504061447019E+03   -0.13544E-05   -0.62838E-05  2101   0.160E-02    0.753E-02
RMM:  14    -0.504061454384E+03   -0.73651E-05   -0.26572E-05  2097   0.106E-02    0.587E-02
RMM:  15    -0.504061453446E+03    0.93833E-06   -0.11427E-05  1993   0.722E-03    0.232E-02
RMM:  16    -0.504061474038E+03   -0.20592E-04   -0.56508E-06  1924   0.463E-03    0.256E-02
RMM:  17    -0.504061490352E+03   -0.16314E-04   -0.42730E-06  1716   0.434E-03    0.179E-02
RMM:  18    -0.504061520982E+03   -0.30630E-04   -0.39832E-06  1662   0.402E-03    0.253E-02
RMM:  19    -0.504061540189E+03   -0.19208E-04   -0.25695E-06  1342   0.363E-03    0.111E-02
RMM:  20    -0.504061558189E+03   -0.17999E-04   -0.13837E-06  1186   0.258E-03    0.131E-02
RMM:  21    -0.504061580680E+03   -0.22492E-04   -0.88112E-07  1189   0.225E-03    0.649E-03
RMM:  22    -0.504061595319E+03   -0.14639E-04   -0.38444E-07  1170   0.139E-03    0.639E-03
RMM:  23    -0.504061615313E+03   -0.19993E-04   -0.25338E-07  1180   0.112E-03    0.426E-03
RMM:  24    -0.504061629784E+03   -0.14471E-04   -0.13899E-07  1169   0.791E-04    0.424E-03
RMM:  25    -0.504061651619E+03   -0.21836E-04   -0.12062E-07  1161   0.646E-04    0.349E-03
RMM:  26    -0.504061665628E+03   -0.14009E-04   -0.76561E-08  1067   0.542E-04    0.324E-03
RMM:  27    -0.504061701325E+03   -0.35697E-04   -0.19139E-07  1188   0.556E-04    0.320E-03
RMM:  28    -0.504061723382E+03   -0.22058E-04   -0.12501E-07  1132   0.592E-04    0.254E-03
RMM:  29    -0.504061764717E+03   -0.41335E-04   -0.31506E-07  1184   0.598E-04    0.299E-03
RMM:  30    -0.504061785713E+03   -0.20996E-04   -0.15555E-07  1104   0.576E-04    0.194E-03
RMM:  31    -0.504061810551E+03   -0.24838E-04   -0.22143E-07  1089   0.517E-04    0.241E-03
RMM:  32    -0.504061824374E+03   -0.13823E-04   -0.12828E-07  1024   0.491E-04    0.115E-03
RMM:  33    -0.504061835187E+03   -0.10813E-04   -0.11470E-07   979   0.420E-04    0.172E-03
RMM:  34    -0.504061841499E+03   -0.63117E-05   -0.90710E-08   943   0.409E-04    0.881E-04
RMM:  35    -0.504061843238E+03   -0.17393E-05   -0.81636E-08   839   0.350E-04    0.113E-03
RMM:  36    -0.504061842056E+03    0.11827E-05   -0.36532E-08   740   0.318E-04    0.554E-04
RMM:  37    -0.504061841345E+03    0.71035E-06   -0.10402E-08   545   0.265E-04
  16 F= -.53841509E+03 E0= -.53842440E+03  d E =-.404913E-02  mag=    97.0241
       N       E                     dE             d eps       ncg     rms          rms(c)
DAV:   1    -0.504061898368E+03   -0.56312E-04   -0.69428E-03  2188   0.100E-01    0.367E-02
RMM:   2    -0.504061935546E+03   -0.37178E-04   -0.11066E-04  2101   0.242E-02    0.702E-02
RMM:   3    -0.504061982755E+03   -0.47209E-04   -0.59997E-05  2173   0.153E-02    0.129E-01
RMM:   4    -0.504061948320E+03    0.34435E-04   -0.24352E-05  2091   0.101E-02    0.858E-02
RMM:   5    -0.504061924164E+03    0.24155E-04   -0.11882E-05  1950   0.730E-03    0.213E-02
RMM:   6    -0.504061923335E+03    0.82927E-06   -0.17969E-06  1307   0.301E-03
  17 F= -.53841509E+03 E0= -.53842440E+03  d E =-.405190E-02  mag=    97.0241
       N       E                     dE             d eps       ncg     rms          rms(c)
DAV:   1    -0.504054427654E+03    0.74965E-02   -0.20186E+00  2096   0.170E+00    0.581E-01
RMM:   2    -0.504062230007E+03   -0.78024E-02   -0.32770E-02  2101   0.434E-01    0.814E-01
RMM:   3    -0.504070625159E+03   -0.83952E-02   -0.16259E-02  2206   0.255E-01    0.170E+00
RMM:   4    -0.504062987104E+03    0.76381E-02   -0.64245E-03  2103   0.169E-01    0.722E-01
RMM:   5    -0.504061611517E+03    0.13756E-02   -0.12811E-03  2108   0.735E-02    0.336E-01
RMM:   6    -0.504061294933E+03    0.31658E-03   -0.30051E-04  2109   0.335E-02    0.136E-01
RMM:   7    -0.504061309209E+03   -0.14277E-04   -0.16133E-04  2100   0.248E-02    0.202E-01
RMM:   8    -0.504061139217E+03    0.16999E-03   -0.13325E-04  2104   0.234E-02    0.104E-01
RMM:   9    -0.504061220577E+03   -0.81360E-04   -0.23382E-04  2100   0.302E-02    0.210E-01
RMM:  10    -0.504061088421E+03    0.13216E-03   -0.24025E-04  2119   0.294E-02    0.160E-01
RMM:  11    -0.504061007664E+03    0.80756E-04   -0.89364E-05  2101   0.191E-02    0.550E-02
RMM:  12    -0.504061009943E+03   -0.22788E-05   -0.24208E-05  2096   0.971E-03    0.486E-02
RMM:  13    -0.504061008433E+03    0.15105E-05   -0.81426E-06  1936   0.588E-03    0.227E-02
RMM:  14    -0.504061012827E+03   -0.43943E-05   -0.31670E-06  1587   0.389E-03    0.190E-02
RMM:  15    -0.504061020383E+03   -0.75565E-05   -0.25331E-06  1298   0.328E-03    0.132E-02
RMM:  16    -0.504061027730E+03   -0.73470E-05   -0.20045E-06  1202   0.310E-03    0.122E-02
RMM:  17    -0.504061042012E+03   -0.14282E-04   -0.22092E-06  1227   0.298E-03    0.106E-02
RMM:  18    -0.504061050632E+03   -0.86195E-05   -0.13872E-06  1176   0.274E-03    0.885E-03
RMM:  19    -0.504061060453E+03   -0.98209E-05   -0.72805E-07  1169   0.193E-03    0.772E-03
RMM:  20    -0.504061065288E+03   -0.48354E-05   -0.33021E-07  1155   0.138E-03    0.377E-03
RMM:  21    -0.504061072655E+03   -0.73665E-05   -0.14174E-07  1164   0.837E-04    0.397E-03
RMM:  22    -0.504061079317E+03   -0.66626E-05   -0.80793E-08  1161   0.668E-04    0.172E-03
RMM:  23    -0.504061086639E+03   -0.73213E-05   -0.38453E-08   964   0.404E-04    0.228E-03
RMM:  24    -0.504061098094E+03   -0.11455E-04   -0.50864E-08  1053   0.411E-04    0.144E-03
RMM:  25    -0.504061107323E+03   -0.92286E-05   -0.34791E-08   881   0.347E-04    0.173E-03
RMM:  26    -0.504061123601E+03   -0.16279E-04   -0.62338E-08   837   0.349E-04    0.112E-03
RMM:  27    -0.504061132050E+03   -0.84488E-05   -0.28844E-08   714   0.318E-04    0.125E-03
RMM:  28    -0.504061145392E+03   -0.13341E-04   -0.54280E-08   705   0.326E-04    0.983E-04
RMM:  29    -0.504061152691E+03   -0.72994E-05   -0.27214E-08   633   0.300E-04    0.958E-04
RMM:  30    -0.504061162786E+03   -0.10095E-04   -0.56420E-08   725   0.320E-04    0.734E-04
RMM:  31    -0.504061168483E+03   -0.56969E-05   -0.32474E-08   673   0.298E-04    0.683E-04
RMM:  32    -0.504061175111E+03   -0.66285E-05   -0.53470E-08   733   0.306E-04    0.621E-04
RMM:  33    -0.504061177553E+03   -0.24414E-05   -0.13257E-08   526   0.264E-04    0.347E-04
RMM:  34    -0.504061180130E+03   -0.25770E-05   -0.28252E-08   607   0.274E-04    0.407E-04
RMM:  35    -0.504061180809E+03   -0.67955E-06   -0.11848E-08   478   0.253E-04
  18 F= -.53841776E+03 E0= -.53842698E+03  d E =-.267343E-02  mag=    97.0255
