 vasp.5.4.4.18Apr17-6-g9f103f2a35 (build Jun 19 2019 11:58:18) complex          
  
 executed on             LinuxIFC date 2022.03.01  16:09:04
 running on   64 total cores
 distrk:  each k-point on   64 cores,    1 groups
 distr:  one band on NCORES_PER_BAND=  16 cores,    4 groups


--------------------------------------------------------------------------------------------------------


 INCAR:
 POTCAR:    PAW_PBE Pt 04Feb2005                  
 POTCAR:    PAW_PBE Pd 04Jan2005                  
 POTCAR:    PAW_PBE Ni 02Aug2007                  
 POTCAR:    PAW_PBE Co 02Aug2007                  
 POTCAR:    PAW_PBE Fe 06Sep2000                  
 POTCAR:    PAW_PBE Pt 04Feb2005                  
   VRHFIN =Pt: s1d9                                                             
   LEXCH  = PE                                                                  
   EATOM  =   729.1176 eV,   53.5886 Ry                                         
                                                                                
   TITEL  = PAW_PBE Pt 04Feb2005                                                
   LULTRA =        F    use ultrasoft PP ?                                      
   IUNSCR =        1    unscreen: 0-lin 1-nonlin 2-no                           
   RPACOR =    2.330    partial core radius                                     
   POMASS =  195.080; ZVAL   =   10.000    mass and valenz                      
   RCORE  =    2.600    outmost cutoff radius                                   
   RWIGS  =    2.750; RWIGS  =    1.455    wigner-seitz radius (au A)           
   ENMAX  =  230.283; ENMIN  =  172.712 eV                                      
   ICORE  =        3    local potential                                         
   LCOR   =        T    correct aug charges                                     
   LPAW   =        T    paw PP                                                  
   EAUG   =  358.966                                                            
   DEXC   =    0.000                                                            
   RMAX   =    2.658    core radius for proj-oper                               
   RAUG   =    1.300    factor for augmentation sphere                          
   RDEP   =    2.761    radius for radial grids                                 
   RDEPT  =    2.203    core radius for aug-charge                              
                                                                                
   Atomic configuration                                                         
   16 entries                                                                   
     n  l   j            E        occ.                                          
     1  0  0.50    -78401.1885   2.0000                                         
     2  0  0.50    -13770.7750   2.0000                                         
     2  1  1.50    -11931.0468   6.0000                                         
     3  0  0.50     -3234.7234   2.0000                                         
     3  1  1.50     -2699.2216   6.0000                                         
     3  2  2.50     -2119.5714  10.0000                                         
     4  0  0.50      -695.1528   2.0000                                         
     4  1  1.50      -519.6034   6.0000                                         
     4  2  2.50      -306.6786  10.0000                                         
     4  3  3.50       -70.1041  14.0000                                         
     5  0  0.50      -101.7747   2.0000                                         
     5  1  1.50       -55.9873   6.0000                                         
     5  2  2.50        -6.1423   9.0000                                         
     6  0  0.50        -5.6573   1.0000                                         
     6  1  1.50        -6.8029   0.0000                                         
     5  3  2.50        -1.3606   0.0000                                         
   Description                                                                  
     l       E           TYP  RCUT    TYP  RCUT                                 
     2     -6.1423404     23  2.500                                             
     2     -7.5029230     23  2.500                                             
     0     -5.6573207     23  2.500                                             
     0      0.7416693     23  2.500                                             
     1     -2.7211652     23  2.600                                             
     1     20.4087390     23  2.600                                             
     3     -1.3605826     23  2.500                                             
  local pseudopotential read in
  partial core-charges read in
  partial kinetic energy density read in
  atomic valenz-charges read in
  non local Contribution for L=           2  read in
    real space projection operators read in
  non local Contribution for L=           2  read in
    real space projection operators read in
  non local Contribution for L=           0  read in
    real space projection operators read in
  non local Contribution for L=           0  read in
    real space projection operators read in
  non local Contribution for L=           1  read in
    real space projection operators read in
  non local Contribution for L=           1  read in
    real space projection operators read in
    PAW grid and wavefunctions read in
 
   number of l-projection  operators is LMAX  =           6
   number of lm-projection operators is LMMAX =          18
 
 POTCAR:    PAW_PBE Pd 04Jan2005                  
   VRHFIN =Pd : s1 d9                                                           
   LEXCH  = PE                                                                  
   EATOM  =   809.7530 eV,   59.5152 Ry                                         
                                                                                
   TITEL  = PAW_PBE Pd 04Jan2005                                                
   LULTRA =        F    use ultrasoft PP ?                                      
   IUNSCR =        1    unscreen: 0-lin 1-nonlin 2-no                           
   RPACOR =    2.000    partial core radius                                     
   POMASS =  106.420; ZVAL   =   10.000    mass and valenz                      
   RCORE  =    2.600    outmost cutoff radius                                   
   RWIGS  =    2.710; RWIGS  =    1.434    wigner-seitz radius (au A)           
   ENMAX  =  250.925; ENMIN  =  188.194 eV                                      
   ICORE  =        3    local potential                                         
   LCOR   =        T    correct aug charges                                     
   LPAW   =        T    paw PP                                                  
   EAUG   =  416.230                                                            
   DEXC   =    0.000                                                            
   RMAX   =    2.653    core radius for proj-oper                               
   RAUG   =    1.300    factor for augmentation sphere                          
   RDEP   =    2.734    radius for radial grids                                 
   RDEPT  =    2.103    core radius for aug-charge                              
                                                                                
   Atomic configuration                                                         
   12 entries                                                                   
     n  l   j            E        occ.                                          
     1  0  0.50    -24164.6631   2.0000                                         
     2  0  0.50     -3530.9218   2.0000                                         
     2  1  1.50     -3165.6822   6.0000                                         
     3  0  0.50      -639.4577   2.0000                                         
     3  1  1.50      -519.4532   6.0000                                         
     3  2  2.50      -328.9757  10.0000                                         
     4  0  0.50       -88.7014   2.0000                                         
     4  1  1.50       -54.4540   6.0000                                         
     4  2  2.50        -6.6878   9.0000                                         
     5  0  0.50        -4.3543   1.0000                                         
     5  1  0.50        -1.3606   0.0000                                         
     4  3  2.50        -1.3606   0.0000                                         
   Description                                                                  
     l       E           TYP  RCUT    TYP  RCUT                                 
     2     -6.6878251     23  2.400                                             
     2     -8.0484077     23  2.400                                             
     0     -4.3542939     23  2.400                                             
     0      4.3406793     23  2.400                                             
     1     -4.0817478     23  2.600                                             
     1     15.8380318     23  2.600                                             
     3     -4.0817478     23  2.400                                             
  local pseudopotential read in
  partial core-charges read in
  partial kinetic energy density read in
  atomic valenz-charges read in
  non local Contribution for L=           2  read in
    real space projection operators read in
  non local Contribution for L=           2  read in
    real space projection operators read in
  non local Contribution for L=           0  read in
    real space projection operators read in
  non local Contribution for L=           0  read in
    real space projection operators read in
  non local Contribution for L=           1  read in
    real space projection operators read in
  non local Contribution for L=           1  read in
    real space projection operators read in
    PAW grid and wavefunctions read in
 
   number of l-projection  operators is LMAX  =           6
   number of lm-projection operators is LMMAX =          18
 
 POTCAR:    PAW_PBE Ni 02Aug2007                  
   VRHFIN =Ni:                                                                  
   LEXCH  = PE                                                                  
   EATOM  =  1077.6739 eV,   79.2068 Ry                                         
                                                                                
   TITEL  = PAW_PBE Ni 02Aug2007                                                
   LULTRA =        F    use ultrasoft PP ?                                      
   IUNSCR =        1    unscreen: 0-lin 1-nonlin 2-no                           
   RPACOR =    2.000    partial core radius                                     
   POMASS =   58.690; ZVAL   =   10.000    mass and valenz                      
   RCORE  =    2.300    outmost cutoff radius                                   
   RWIGS  =    2.430; RWIGS  =    1.286    wigner-seitz radius (au A)           
   ENMAX  =  269.532; ENMIN  =  202.149 eV                                      
   RCLOC  =    1.201    cutoff for local pot                                    
   LCOR   =        T    correct aug charges                                     
   LPAW   =        T    paw PP                                                  
   EAUG   =  544.565                                                            
   DEXC   =    0.000                                                            
   RMAX   =    2.357    core radius for proj-oper                               
   RAUG   =    1.300    factor for augmentation sphere                          
   RDEP   =    2.390    radius for radial grids                                 
   RDEPT  =    1.838    core radius for aug-charge                              
                                                                                
   Atomic configuration                                                         
    9 entries                                                                   
     n  l   j            E        occ.                                          
     1  0  0.50     -8206.4253   2.0000                                         
     2  0  0.50      -976.1748   2.0000                                         
     2  1  1.50      -839.0571   6.0000                                         
     3  0  0.50      -105.9991   2.0000                                         
     3  1  1.50       -66.4603   6.0000                                         
     3  2  2.50        -4.6458   9.0000                                         
     4  0  0.50        -4.4926   1.0000                                         
     4  1  1.50        -4.0817   0.0000                                         
     4  3  2.50        -1.3606   0.0000                                         
   Description                                                                  
     l       E           TYP  RCUT    TYP  RCUT                                 
     2     -4.6457903     23  2.300                                             
     2     -6.0063729     23  2.300                                             
     0     -4.4925590     23  2.300                                             
     0      5.0102601     23  2.300                                             
     1     -2.7211652     23  2.300                                             
     1     16.5183231     23  2.300                                             
  local pseudopotential read in
  partial core-charges read in
  partial kinetic energy density read in
  atomic valenz-charges read in
  non local Contribution for L=           2  read in
    real space projection operators read in
  non local Contribution for L=           2  read in
    real space projection operators read in
  non local Contribution for L=           0  read in
    real space projection operators read in
  non local Contribution for L=           0  read in
    real space projection operators read in
  non local Contribution for L=           1  read in
    real space projection operators read in
  non local Contribution for L=           1  read in
    real space projection operators read in
    PAW grid and wavefunctions read in
 
   number of l-projection  operators is LMAX  =           6
   number of lm-projection operators is LMMAX =          18
 
 POTCAR:    PAW_PBE Co 02Aug2007                  
   VRHFIN =Co: d8 s1                                                            
   LEXCH  = PE                                                                  
   EATOM  =   813.3670 eV,   59.7808 Ry                                         
                                                                                
   TITEL  = PAW_PBE Co 02Aug2007                                                
   LULTRA =        F    use ultrasoft PP ?                                      
   IUNSCR =        1    unscreen: 0-lin 1-nonlin 2-no                           
   RPACOR =    2.000    partial core radius                                     
   POMASS =   58.933; ZVAL   =    9.000    mass and valenz                      
   RCORE  =    2.300    outmost cutoff radius                                   
   RWIGS  =    2.460; RWIGS  =    1.302    wigner-seitz radius (au A)           
   ENMAX  =  267.968; ENMIN  =  200.976 eV                                      
   RCLOC  =    1.203    cutoff for local pot                                    
   LCOR   =        T    correct aug charges                                     
   LPAW   =        T    paw PP                                                  
   EAUG   =  477.818                                                            
   DEXC   =    0.000                                                            
   RMAX   =    2.360    core radius for proj-oper                               
   RAUG   =    1.300    factor for augmentation sphere                          
   RDEP   =    2.393    radius for radial grids                                 
   RDEPT  =    1.864    core radius for aug-charge                              
                                                                                
   Atomic configuration                                                         
    9 entries                                                                   
     n  l   j            E        occ.                                          
     1  0  0.50     -7587.6674   2.0000                                         
     2  0  0.50      -893.6084   2.0000                                         
     2  1  1.50      -764.5805   6.0000                                         
     3  0  0.50       -97.5973   2.0000                                         
     3  1  1.50       -60.9648   6.0000                                         
     3  2  2.50        -4.2382   8.0000                                         
     4  0  0.50        -4.3746   1.0000                                         
     4  1  1.50        -4.0817   0.0000                                         
     4  3  2.50        -1.3606   0.0000                                         
   Description                                                                  
     l       E           TYP  RCUT    TYP  RCUT                                 
     2     -4.2382362     23  2.300                                             
     2     -5.5988188     23  2.300                                             
     0     -4.3745797     23  2.300                                             
     0      5.7660125     23  2.300                                             
     1     -2.7211652     23  2.300                                             
     1     16.9860234     23  2.300                                             
  local pseudopotential read in
  partial core-charges read in
  partial kinetic energy density read in
  atomic valenz-charges read in
  non local Contribution for L=           2  read in
    real space projection operators read in
  non local Contribution for L=           2  read in
    real space projection operators read in
  non local Contribution for L=           0  read in
    real space projection operators read in
  non local Contribution for L=           0  read in
    real space projection operators read in
  non local Contribution for L=           1  read in
    real space projection operators read in
  non local Contribution for L=           1  read in
    real space projection operators read in
    PAW grid and wavefunctions read in
 
   number of l-projection  operators is LMAX  =           6
   number of lm-projection operators is LMMAX =          18
 
 POTCAR:    PAW_PBE Fe 06Sep2000                  
   VRHFIN =Fe:  d7 s1                                                           
   LEXCH  = PE                                                                  
   EATOM  =   594.3153 eV,   43.6809 Ry                                         
                                                                                
   TITEL  = PAW_PBE Fe 06Sep2000                                                
   LULTRA =        F    use ultrasoft PP ?                                      
   IUNSCR =        1    unscreen: 0-lin 1-nonlin 2-no                           
   RPACOR =    2.000    partial core radius                                     
   POMASS =   55.847; ZVAL   =    8.000    mass and valenz                      
   RCORE  =    2.300    outmost cutoff radius                                   
   RWIGS  =    2.460; RWIGS  =    1.302    wigner-seitz radius (au A)           
   ENMAX  =  267.882; ENMIN  =  200.911 eV                                      
   RCLOC  =    1.701    cutoff for local pot                                    
   LCOR   =        T    correct aug charges                                     
   LPAW   =        T    paw PP                                                  
   EAUG   =  511.368                                                            
   DEXC   =    0.000                                                            
   RMAX   =    2.356    core radius for proj-oper                               
   RAUG   =    1.300    factor for augmentation sphere                          
   RDEP   =    2.442    radius for radial grids                                 
   RDEPT  =    1.890    core radius for aug-charge                              
                                                                                
   Atomic configuration                                                         
    9 entries                                                                   
     n  l   j            E        occ.                                          
     1  0  0.50     -6993.8440   2.0000                                         
     2  0  0.50      -814.6047   2.0000                                         
     2  1  1.50      -693.3689   6.0000                                         
     3  0  0.50       -89.4732   2.0000                                         
     3  1  1.50       -55.6373   6.0000                                         
     3  2  2.50        -3.8151   7.0000                                         
     4  0  0.50        -4.2551   1.0000                                         
     4  1  1.50        -3.4015   0.0000                                         
     4  3  2.50        -1.3606   0.0000                                         
   Description                                                                  
     l       E           TYP  RCUT    TYP  RCUT                                 
     2     -3.8151135     23  2.300                                             
     2     -5.1756961     23  2.300                                             
     0     -4.2550963     23  2.300                                             
     0      7.2035603     23  2.300                                             
     1     -2.7211652     23  2.300                                             
     1     18.4316424     23  2.300                                             
  local pseudopotential read in
  partial core-charges read in
  partial kinetic energy density read in
  atomic valenz-charges read in
  non local Contribution for L=           2  read in
    real space projection operators read in
  non local Contribution for L=           2  read in
    real space projection operators read in
  non local Contribution for L=           0  read in
    real space projection operators read in
  non local Contribution for L=           0  read in
    real space projection operators read in
  non local Contribution for L=           1  read in
    real space projection operators read in
  non local Contribution for L=           1  read in
    real space projection operators read in
    PAW grid and wavefunctions read in
 
   number of l-projection  operators is LMAX  =           6
   number of lm-projection operators is LMMAX =          18
 
 Optimization of the real space projectors (new method)

 maximal supplied QI-value         = 14.36
 optimisation between [QCUT,QGAM] = [ 11.35, 22.84] = [ 36.05,146.02] Ry 
 Optimized for a Real-space Cutoff    1.52 Angstroem

   l    n(q)    QCUT    max X(q) W(low)/X(q) W(high)/X(q)  e(spline) 
   2      9    11.346    66.195    0.18E-03    0.31E-04    0.24E-06
   2      9    11.346    64.643    0.18E-03    0.31E-04    0.25E-06
   0     10    11.346    95.520    0.43E-04    0.40E-05    0.18E-06
   0     10    11.346    63.403    0.42E-04    0.39E-05    0.17E-06
   1     10    11.346    19.961    0.83E-04    0.43E-04    0.12E-06
   1     10    11.346    13.289    0.69E-04    0.37E-04    0.98E-07
 Optimization of the real space projectors (new method)

 maximal supplied QI-value         = 14.36
 optimisation between [QCUT,QGAM] = [ 11.35, 22.84] = [ 36.05,146.02] Ry 
 Optimized for a Real-space Cutoff    1.47 Angstroem

   l    n(q)    QCUT    max X(q) W(low)/X(q) W(high)/X(q)  e(spline) 
   2      9    11.346    59.108    0.74E-04    0.81E-04    0.26E-06
   2      9    11.346    58.101    0.74E-04    0.83E-04    0.27E-06
   0     10    11.346   102.235    0.26E-04    0.31E-04    0.16E-06
   0     10    11.346    58.388    0.23E-04    0.29E-04    0.15E-06
   1     10    11.346    22.191    0.23E-03    0.26E-03    0.14E-06
   1     10    11.346    15.590    0.19E-03    0.22E-03    0.12E-06
 Optimization of the real space projectors (new method)

 maximal supplied QI-value         = 16.25
 optimisation between [QCUT,QGAM] = [ 11.38, 22.75] = [ 36.24,144.96] Ry 
 Optimized for a Real-space Cutoff    1.47 Angstroem

   l    n(q)    QCUT    max X(q) W(low)/X(q) W(high)/X(q)  e(spline) 
   2      9    11.376    60.317    0.17E-03    0.16E-04    0.16E-06
   2      9    11.376    55.921    0.17E-03    0.16E-04    0.17E-06
   0     10    11.376    51.690    0.45E-04    0.60E-04    0.21E-06
   0     10    11.376    30.015    0.37E-04    0.55E-04    0.19E-06
   1     10    11.376    18.849    0.83E-04    0.11E-03    0.92E-07
   1     10    11.376    14.624    0.69E-04    0.92E-04    0.82E-07
 Optimization of the real space projectors (new method)

 maximal supplied QI-value         = 16.25
 optimisation between [QCUT,QGAM] = [ 11.38, 22.75] = [ 36.24,144.96] Ry 
 Optimized for a Real-space Cutoff    1.43 Angstroem

   l    n(q)    QCUT    max X(q) W(low)/X(q) W(high)/X(q)  e(spline) 
   2      9    11.376    65.824    0.18E-03    0.28E-04    0.14E-06
   2      9    11.376    61.429    0.18E-03    0.29E-04    0.14E-06
   0     10    11.376    56.174    0.51E-04    0.12E-03    0.20E-06
   0     10    11.376    31.263    0.46E-04    0.11E-03    0.18E-06
   1      9    11.376    19.828    0.23E-03    0.17E-03    0.10E-06
   1      9    11.376    15.139    0.20E-03    0.14E-03    0.89E-07
 Optimization of the real space projectors (new method)

 maximal supplied QI-value         = 16.25
 optimisation between [QCUT,QGAM] = [ 11.38, 22.75] = [ 36.24,144.96] Ry 
 Optimized for a Real-space Cutoff    1.52 Angstroem

   l    n(q)    QCUT    max X(q) W(low)/X(q) W(high)/X(q)  e(spline) 
   2      9    11.376    80.901    0.22E-03    0.86E-04    0.27E-06
   2      9    11.376    75.754    0.23E-03    0.87E-04    0.27E-06
   0     10    11.376    58.752    0.56E-04    0.38E-04    0.25E-06
   0     10    11.376    30.679    0.47E-04    0.35E-04    0.23E-06
   1     10    11.376    17.977    0.50E-04    0.42E-04    0.12E-06
   1     10    11.376    13.559    0.42E-04    0.37E-04    0.11E-06
  PAW_PBE Pt 04Feb2005                  :
 energy of atom  1       EATOM= -729.1176
 kinetic energy error for atom=    0.0039 (will be added to EATOM!!)
  PAW_PBE Pd 04Jan2005                  :
 energy of atom  2       EATOM= -809.7530
 kinetic energy error for atom=    0.0049 (will be added to EATOM!!)
  PAW_PBE Ni 02Aug2007                  :
 energy of atom  3       EATOM=-1077.6739
 kinetic energy error for atom=    0.0030 (will be added to EATOM!!)
  PAW_PBE Co 02Aug2007                  :
 energy of atom  4       EATOM= -813.3670
 kinetic energy error for atom=    0.0028 (will be added to EATOM!!)
  PAW_PBE Fe 06Sep2000                  :
 energy of atom  5       EATOM= -594.3153
 kinetic energy error for atom=    0.0026 (will be added to EATOM!!)
 
 
 POSCAR: Pt   Pd   Ni   Co   Fe                  
  positions in direct lattice
  No initial velocities read in
 exchange correlation table for  LEXCH =        8
   RHO(1)=    0.500       N(1)  =     2000
   RHO(2)=  100.500       N(2)  =     4000
 


--------------------------------------------------------------------------------------------------------


 ion  position               nearest neighbor table
   1  0.431  0.034  0.467-  61 2.53  24 2.57  42 2.57   8 2.59  73 2.60  80 2.61  52 2.62  26 2.65
                            45 2.65
   2  0.024  0.716  0.279-  12 2.52  34 2.55  48 2.57  75 2.59  62 2.60  30 2.62  71 2.63  23 2.64
                             3 2.69  43 2.71  20 2.72  76 2.73
   3  0.773  0.449  0.281-  76 2.53  75 2.60  27 2.60  59 2.63  46 2.63  29 2.67  79 2.67  37 2.67
                             2 2.69  35 2.71  20 2.72  71 2.76
   4  0.099  0.119  0.375-  11 2.46  70 2.49  50 2.51  57 2.53  30 2.53  42 2.55  67 2.59  66 2.60
                            24 2.61  34 2.63  40 2.63  13 2.65
   5  0.690  0.544  0.469-  16 2.46  64 2.49  78 2.50  20 2.57  44 2.59  35 2.62   8 2.67  74 2.73
                            80 2.74
   6  0.599  0.113  0.095-  65 2.57  72 2.58  36 2.58  27 2.61  39 2.62  15 2.65  10 2.66  41 2.69
                            22 2.69
   7  0.353  0.620  0.375-  74 2.47  26 2.50  52 2.51  50 2.53  44 2.53  21 2.53  43 2.54  60 2.56
                            70 2.59  63 2.68  23 2.68  25 2.68
   8  0.683  0.282  0.472-  78 2.55  73 2.56   1 2.59  47 2.61  35 2.62   5 2.67  37 2.70  80 2.71
                            45 2.79
   9  0.522  0.949  0.280-  25 2.41  22 2.49  45 2.51  69 2.52  23 2.52  59 2.56  46 2.56  12 2.58
                            21 2.58  41 2.60  52 2.63  49 2.69
  10  0.345  0.118  0.098-  38 2.50  51 2.51  55 2.54  58 2.55  32 2.58  39 2.60  41 2.60  65 2.63
                             6 2.66
  11  0.857  0.112  0.373-   4 2.46  69 2.49  40 2.49  67 2.50  37 2.54  57 2.56  59 2.57  70 2.60
                            21 2.62  45 2.65  73 2.67  47 2.71
  12  0.274  0.953  0.280-  41 2.46  46 2.51   2 2.52  13 2.53  23 2.53  32 2.58   9 2.58  42 2.58
                            48 2.61  52 2.64  34 2.72  30 2.77
  13  0.258  0.189  0.278-  34 2.47  32 2.52  12 2.53  56 2.61  51 2.63  63 2.64  40 2.65  46 2.65
                             4 2.65  42 2.66  79 2.66  50 2.77
  14  0.433  0.540  0.186-  49 2.55  31 2.57  53 2.57  51 2.60  55 2.60  17 2.61  56 2.63  68 2.63
                            29 2.64  25 2.66  79 2.67  63 2.72
  15  0.856  0.115  0.098-  77 2.53  38 2.54  72 2.61  19 2.62  33 2.64   6 2.65  54 2.65  22 2.67
                            36 2.67
  16  0.684  0.779  0.468-   5 2.46  44 2.52  64 2.55  67 2.58  26 2.60  74 2.62  57 2.64  73 2.64
                            21 2.64
  17  0.603  0.619  0.093-  36 2.54  68 2.58  39 2.60  29 2.60  18 2.60  77 2.61  14 2.61  31 2.62
                            55 2.67
  18  0.854  0.617  0.094-  58 2.58  75 2.59  29 2.59  77 2.60  28 2.60  17 2.60  72 2.61  62 2.62
                            39 2.62
  19  0.943  0.291  0.189-  76 2.53  53 2.54  40 2.55  56 2.56  33 2.57  15 2.62  59 2.64  75 2.64
                            72 2.68  27 2.69  54 2.70  22 2.76
  20  0.854  0.627  0.377-  30 2.47  67 2.50  64 2.53   5 2.57  78 2.59  44 2.61  43 2.65  35 2.65
                            71 2.71   2 2.72   3 2.72  37 2.80
  21  0.599  0.863  0.374-  44 2.49  45 2.50   7 2.53  52 2.54  25 2.54  69 2.56  26 2.56  67 2.57
                             9 2.58  11 2.62  73 2.63  16 2.64
  22  0.680  0.021  0.192-   9 2.49  68 2.51  69 2.53  59 2.57  49 2.58  36 2.62  15 2.67  54 2.68
                            41 2.68   6 2.69  27 2.72  19 2.76  25 3.39
  23  0.276  0.708  0.278-  25 2.51   9 2.52  12 2.53  49 2.54  53 2.58  48 2.59  52 2.62   2 2.64
                            63 2.65   7 2.68  76 2.68  43 2.69
  24  0.179  0.028  0.467-  57 2.52  30 2.52  64 2.55  61 2.55  42 2.55   1 2.57  80 2.57   4 2.61
                            66 2.62
  25  0.522  0.716  0.279-   9 2.41  69 2.50  23 2.51  21 2.54  71 2.55  49 2.65  14 2.66  68 2.66
                             7 2.68  44 2.72  79 2.74  63 2.80  22 3.39
  26  0.433  0.779  0.465-  74 2.46   7 2.50  52 2.53  61 2.56  21 2.56  60 2.57  16 2.60  73 2.61
                             1 2.65
  27  0.680  0.284  0.187-  29 2.57  39 2.57  46 2.58   3 2.60  51 2.61   6 2.61  41 2.67  72 2.67
                            75 2.69  19 2.69  59 2.71  22 2.72
  28  0.106  0.620  0.095-  31 2.51  53 2.53  65 2.53  48 2.58  58 2.59  33 2.60  18 2.60  75 2.62
                            72 2.67
  29  0.687  0.536  0.186-  68 2.54  27 2.57  75 2.57  18 2.59  39 2.60  17 2.60  62 2.61  51 2.63
                            14 2.64  71 2.66  79 2.67   3 2.67
  30  0.088  0.869  0.376-  67 2.46  20 2.47  24 2.52  42 2.53   4 2.53  64 2.55   2 2.62  34 2.66
                            61 2.67  43 2.69  52 2.77  12 2.77
  31  0.349  0.620  0.093-  28 2.51  36 2.51  49 2.52  33 2.53  65 2.53  14 2.57  53 2.59  55 2.62
                            17 2.62
  32  0.177  0.024  0.188-  54 2.45  62 2.45  58 2.48  48 2.48  13 2.52  41 2.53  38 2.54  34 2.56
                            10 2.58  12 2.58  56 2.61  51 2.66
  33  0.110  0.371  0.097-  55 2.45  56 2.47  31 2.53  53 2.55  19 2.57  38 2.59  28 2.60  15 2.64
                            72 2.67
  34  0.013  0.957  0.279-  54 2.37  13 2.47  40 2.50  69 2.52  71 2.53   2 2.55  32 2.56  62 2.62
                             4 2.63  30 2.66  67 2.66  12 2.72
  35  0.601  0.367  0.378-   8 2.62  80 2.62   5 2.62  44 2.65  20 2.65  79 2.69  37 2.69  45 2.69
                            42 2.70   3 2.71  46 2.73  50 2.73
  36  0.594  0.860  0.097-  31 2.51  49 2.51  17 2.54  65 2.55  68 2.56   6 2.58  22 2.62  77 2.65
                            15 2.67
  37  0.855  0.357  0.375-  11 2.54  47 2.54  70 2.57  59 2.60  76 2.63  45 2.64  43 2.64   3 2.67
                            78 2.68  35 2.69   8 2.70  20 2.80
  38  0.103  0.117  0.099-  56 2.44  10 2.50  55 2.51  15 2.54  32 2.54  77 2.56  58 2.56  54 2.58
                            33 2.59
  39  0.599  0.366  0.095-  27 2.57  51 2.57  72 2.59  10 2.60  29 2.60  17 2.60   6 2.62  18 2.62
                            55 2.63
  40  0.005  0.195  0.281-  59 2.40  69 2.48  11 2.49  34 2.50  54 2.53  19 2.55  76 2.56  63 2.58
                             4 2.63  13 2.65  70 2.71  56 2.76
  41  0.423  0.026  0.190-  12 2.46  48 2.47  49 2.52  32 2.53  65 2.54  46 2.55  10 2.60   9 2.60
                            51 2.66  27 2.67  22 2.68   6 2.69
  42  0.339  0.107  0.375-  30 2.53   4 2.55  24 2.55   1 2.57  12 2.58  52 2.59  80 2.65  13 2.66
                            45 2.68  50 2.70  35 2.70  46 2.71
  43  0.105  0.617  0.374-   7 2.54  52 2.55  60 2.61  70 2.62  76 2.63  61 2.64  37 2.64  20 2.65
                            23 2.69  30 2.69   2 2.71  78 2.73
  44  0.599  0.622  0.377-  21 2.49  16 2.52   7 2.53  67 2.56  74 2.56   5 2.59  20 2.61  35 2.65
                            50 2.68  71 2.71  25 2.72  79 2.72
  45  0.597  0.105  0.372-  21 2.50  52 2.51   9 2.51  73 2.59  59 2.59  46 2.60  37 2.64   1 2.65
                            11 2.65  42 2.68  35 2.69   8 2.79
  46  0.517  0.195  0.280-  12 2.51  41 2.55   9 2.56  27 2.58  45 2.60  79 2.62   3 2.63  59 2.64
                            13 2.65  51 2.70  42 2.71  35 2.73
  47  0.937  0.286  0.469-  66 2.53  60 2.54  37 2.54  70 2.59   8 2.61  78 2.61  57 2.61  73 2.62
                            11 2.71
  48  0.184  0.787  0.186-  58 2.47  41 2.47  32 2.48  65 2.49  49 2.50  75 2.52  53 2.55   2 2.57
                            28 2.58  62 2.58  23 2.59  12 2.61
  49  0.423  0.782  0.183-  65 2.38  53 2.48  48 2.50  36 2.51  31 2.52  41 2.52  23 2.54  14 2.55
                            22 2.58  25 2.65   9 2.69  68 2.79
  50  0.336  0.367  0.376-  70 2.35   4 2.51  74 2.53   7 2.53  66 2.55  63 2.59  80 2.59  44 2.68
                            42 2.70  79 2.72  35 2.73  13 2.77
  51  0.429  0.287  0.185-  56 2.49  55 2.50  10 2.51  39 2.57  14 2.60  27 2.61  79 2.62  29 2.63
                            13 2.63  41 2.66  32 2.66  46 2.70
  52  0.353  0.863  0.374-  45 2.51   7 2.51  26 2.53  21 2.54  43 2.55  42 2.59  61 2.61  23 2.62
                             1 2.62   9 2.63  12 2.64  30 2.77
  53  0.185  0.541  0.186-  49 2.48  28 2.53  19 2.54  33 2.55  48 2.55  75 2.56  14 2.57  23 2.58
                            31 2.59  76 2.63  63 2.65  56 2.69
  54  0.943  0.030  0.192-  34 2.37  62 2.43  32 2.45  40 2.53  68 2.55  56 2.56  38 2.58  69 2.64
                            77 2.65  15 2.65  22 2.68  19 2.70
  55  0.343  0.363  0.096-  33 2.45  56 2.46  51 2.50  38 2.51  10 2.54  14 2.60  31 2.62  39 2.63
                            17 2.67
  56  0.185  0.281  0.184-  38 2.44  55 2.46  33 2.47  51 2.49  54 2.56  19 2.56  13 2.61  32 2.61
                            14 2.63  63 2.67  53 2.69  40 2.76
  57  0.939  0.034  0.466-  24 2.52   4 2.53  66 2.53  67 2.54  11 2.56  64 2.57  47 2.61  16 2.64
                            73 2.65
  58  0.102  0.868  0.099-  48 2.47  62 2.47  32 2.48  10 2.55  77 2.55  38 2.56  18 2.58  65 2.58
                            28 2.59
  59  0.772  0.193  0.282-  40 2.40  69 2.45   9 2.56  11 2.57  22 2.57  76 2.59  45 2.59  37 2.60
                             3 2.63  19 2.64  46 2.64  27 2.71
  60  0.188  0.527  0.466-  74 2.38  70 2.49  66 2.49  47 2.54   7 2.56  26 2.57  43 2.61  61 2.67
                            78 2.74
  61  0.189  0.786  0.468-   1 2.53  24 2.55  26 2.56  52 2.61  64 2.63  43 2.64  60 2.67  30 2.67
                            78 2.68
  62  0.937  0.792  0.185-  54 2.43  32 2.45  58 2.47  68 2.47  77 2.50  75 2.57  48 2.58   2 2.60
                            29 2.61  18 2.62  34 2.62  71 2.64
  63  0.255  0.442  0.281-  76 2.49  40 2.58  50 2.59  70 2.59  13 2.64  53 2.65  23 2.65  79 2.65
                            56 2.67   7 2.68  14 2.72  25 2.80
  64  0.933  0.783  0.469-   5 2.49  20 2.53  30 2.55  78 2.55  24 2.55  16 2.55  57 2.57  67 2.60
                            61 2.63
  65  0.350  0.865  0.099-  49 2.38  48 2.49  28 2.53  31 2.53  41 2.54  36 2.55   6 2.57  58 2.58
                            10 2.63
  66  0.180  0.282  0.469-  70 2.49  60 2.49  80 2.50  47 2.53  57 2.53  50 2.55  74 2.57   4 2.60
                            24 2.62
  67  0.849  0.867  0.376-  30 2.46  11 2.50  20 2.50  57 2.54  44 2.56  21 2.57  16 2.58   4 2.59
                            64 2.60  69 2.60  71 2.61  34 2.66
  68  0.695  0.786  0.185-  62 2.47  22 2.51  77 2.52  71 2.53  29 2.54  54 2.55  36 2.56  17 2.58
                            14 2.63  25 2.66  69 2.72  49 2.79
  69  0.767  0.954  0.284-  59 2.45  40 2.48  11 2.49  71 2.49  25 2.50   9 2.52  34 2.52  22 2.53
                            21 2.56  67 2.60  54 2.64  68 2.72
  70  0.107  0.364  0.378-  50 2.35  60 2.49   4 2.49  66 2.49  37 2.57  47 2.59  63 2.59   7 2.59
                            11 2.60  43 2.62  40 2.71  76 2.73
  71  0.768  0.713  0.279-  69 2.49  68 2.53  34 2.53  25 2.55  67 2.61   2 2.63  62 2.64  29 2.66
                            79 2.70  44 2.71  20 2.71   3 2.76
  72  0.848  0.362  0.091-   6 2.58  39 2.59  15 2.61  18 2.61  27 2.67  33 2.67  28 2.67  19 2.68
                            75 2.76
  73  0.682  0.034  0.467-   8 2.56  45 2.59   1 2.60  26 2.61  47 2.62  21 2.63  16 2.64  57 2.65
                            11 2.67
  74  0.422  0.535  0.465-  60 2.38  26 2.46   7 2.47  50 2.53  44 2.56  66 2.57  80 2.61  16 2.62
                             5 2.73
  75  0.939  0.544  0.188-  48 2.52  53 2.56  29 2.57  62 2.57  18 2.59   2 2.59   3 2.60  28 2.62
                            76 2.62  19 2.64  27 2.69  72 2.76
  76  0.017  0.448  0.280-  63 2.49   3 2.53  19 2.53  40 2.56  59 2.59  75 2.62  37 2.63  53 2.63
                            43 2.63  23 2.68   2 2.73  70 2.73
  77  0.856  0.870  0.095-  62 2.50  68 2.52  15 2.53  58 2.55  38 2.56  18 2.60  17 2.61  54 2.65
                            36 2.65
  78  0.925  0.532  0.470-   5 2.50  64 2.55   8 2.55  20 2.59  47 2.61  61 2.68  37 2.68  43 2.73
                            60 2.74
  79  0.514  0.447  0.280-  46 2.62  51 2.62  63 2.65  13 2.66  29 2.67   3 2.67  14 2.67  35 2.69
                            71 2.70  50 2.72  44 2.72  25 2.74
  80  0.422  0.283  0.468-  66 2.50  24 2.57  50 2.59  74 2.61   1 2.61  35 2.62  42 2.65   8 2.71
                             5 2.74
 
  LATTYP: Found a triclinic cell.
 ALAT       =    10.3273170308
 B/A-ratio  =     2.8117771798
 C/A-ratio  =     1.0017227171
 COS(alpha) =     0.0002553133
 COS(beta)  =     0.5001101221
 COS(gamma) =     0.5317467239
  
  Lattice vectors:
  
 A1 = (  -0.0040054641, -10.3273037819,  -0.0160501657)
 A2 = (   8.9517318339, -15.4799713156,  22.8790093877)
 A3 = (  -8.9604541660,  -5.1702417637,   0.0110619016)


Analysis of symmetry for initial positions (statically):
=====================================================================
 Subroutine PRICEL returns:
 Original cell was already a primitive cell.
 

 Routine SETGRP: Setting up the symmetry group for a 
 triclinic supercell.


 Subroutine GETGRP returns: Found  1 space group operations
 (whereof  1 operations were pure point group operations)
 out of a pool of  2 trial point group operations.


The static configuration has the point symmetry C_1 .


Analysis of symmetry for dynamics (positions and initial velocities):
=====================================================================
 Subroutine PRICEL returns:
 Original cell was already a primitive cell.
 

 Routine SETGRP: Setting up the symmetry group for a 
 triclinic supercell.


 Subroutine GETGRP returns: Found  1 space group operations
 (whereof  1 operations were pure point group operations)
 out of a pool of  2 trial point group operations.


The dynamic configuration has the point symmetry C_1 .


Analysis of constrained symmetry for selective dynamics:
=====================================================================
 Subroutine PRICEL returns:
 Original cell was already a primitive cell.
 

 Routine SETGRP: Setting up the symmetry group for a 
 triclinic supercell.


 Subroutine GETGRP returns: Found  1 space group operations
 (whereof  1 operations were pure point group operations)
 out of a pool of  2 trial point group operations.


The constrained configuration has the point symmetry C_1 .


Analysis of structural, dynamic, and magnetic symmetry:
=====================================================================
 Subroutine PRICEL returns:
 Original cell was already a primitive cell.
 

 Routine SETGRP: Setting up the symmetry group for a 
 triclinic supercell.


 Subroutine GETGRP returns: Found  1 space group operations
 (whereof  1 operations were pure point group operations)
 out of a pool of  2 trial point group operations.


The magnetic configuration has the point symmetry C_1 .


 Subroutine INISYM returns: Found  1 space group operations
 (whereof  1 operations are pure point group operations),
 and found     1 'primitive' translations

 
 
 KPOINTS: Automatic mesh                          

Automatic generation of k-mesh.
Space group operators:
 irot       det(A)        alpha          n_x          n_y          n_z        tau_x        tau_y        tau_z
    1     1.000000     0.000000     1.000000     0.000000     0.000000     0.000000     0.000000     0.000000
 
 Subroutine IBZKPT returns following result:
 ===========================================
 
 Found      1 irreducible k-points:
 
 Following reciprocal coordinates:
            Coordinates               Weight
  0.000000  0.000000  0.000000      1.000000
 
 Following cartesian coordinates:
            Coordinates               Weight
  0.000000  0.000000  0.000000      1.000000
 


--------------------------------------------------------------------------------------------------------




 Dimension of arrays:
   k-points           NKPTS =      1   k-points in BZ     NKDIM =      1   number of bands    NBANDS=    524
   number of dos      NEDOS =    301   number of ions     NIONS =     80
   non local maximal  LDIM  =      6   non local SUM 2l+1 LMDIM =     18
   total plane-waves  NPLWV = ******
   max r-space proj   IRMAX =   7488   max aug-charges    IRDMAX=  30904
   dimension x,y,z NGX =    80 NGY =   80 NGZ =  168
   dimension x,y,z NGXF=   160 NGYF=  160 NGZF=  336
   support grid    NGXF=   160 NGYF=  160 NGZF=  336
   ions per type =              14  14  18  17  17
   NGX,Y,Z   is equivalent  to a cutoff of  12.87, 12.88, 12.18 a.u.
   NGXF,Y,Z  is equivalent  to a cutoff of  25.74, 25.76, 24.37 a.u.

 SYSTEM =  ML                                      
 POSCAR =  Pt   Pd   Ni   Co   Fe                  

 Startparameter for this run:
   NWRITE =      2    write-flag & timer
   PREC   = accura    normal or accurate (medium, high low for compatibility)
   ISTART =      0    job   : 0-new  1-cont  2-samecut
   ICHARG =      2    charge: 1-file 2-atom 10-const
   ISPIN  =      2    spin polarized calculation?
   LNONCOLLINEAR =      F non collinear calculations
   LSORBIT =      F    spin-orbit coupling
   INIWAV =      1    electr: 0-lowe 1-rand  2-diag
   LASPH  =      F    aspherical Exc in radial PAW
   METAGGA=      F    non-selfconsistent MetaGGA calc.

 Electronic Relaxation 1
   ENCUT  =  500.0 eV  36.75 Ry    6.06 a.u.  18.84 18.83 41.79*2*pi/ulx,y,z
   ENINI  =  500.0     initial cutoff
   ENAUG  =  544.6 eV  augmentation charge cutoff
   NELM   =    300;   NELMIN=  4; NELMDL= -5     # of ELM steps 
   EDIFF  = 0.1E-05   stopping-criterion for ELM
   LREAL  =      T    real-space projection
   NLSPLINE    = F    spline interpolate recip. space projectors
   LCOMPAT=      F    compatible to vasp.4.4
   GGA_COMPAT  = T    GGA compatible to vasp.4.4-vasp.4.6
   LMAXPAW     = -100 max onsite density
   LMAXMIX     =    2 max onsite mixed and CHGCAR
   VOSKOWN=      0    Vosko Wilk Nusair interpolation
   ROPT   =   -0.00025  -0.00025  -0.00025  -0.00025
   ROPT   =   -0.00025
 Ionic relaxation
   EDIFFG = -.5E-01   stopping-criterion for IOM
   NSW    =    300    number of steps for IOM
   NBLOCK =      1;   KBLOCK =    300    inner block; outer block 
   IBRION =      2    ionic relax: 0-MD 1-quasi-New 2-CG
   NFREE  =      1    steps in history (QN), initial steepest desc. (CG)
   ISIF   =      2    stress and relaxation
   IWAVPR =     11    prediction:  0-non 1-charg 2-wave 3-comb
   ISYM   =      2    0-nonsym 1-usesym 2-fastsym
   LCORR  =      T    Harris-Foulkes like correction to forces

   POTIM  = 0.5000    time-step for ionic-motion
   TEIN   =    0.0    initial temperature
   TEBEG  =    0.0;   TEEND  =   0.0 temperature during run
   SMASS  =  -3.00    Nose mass-parameter (am)
   estimated Nose-frequenzy (Omega)   =  0.10E-29 period in steps =****** mass=  -0.244E-26a.u.
   SCALEE = 1.0000    scale energy and forces
   NPACO  =    256;   APACO  = 16.0  distance and # of slots for P.C.
   PSTRESS=    0.0 pullay stress

  Mass of Ions in am
   POMASS = 195.08106.42 58.69 58.93 55.85
  Ionic Valenz
   ZVAL   =  10.00 10.00 10.00  9.00  8.00
  Atomic Wigner-Seitz radii
   RWIGS  =  -1.00 -1.00 -1.00 -1.00 -1.00
  virtual crystal weights 
   VCA    =   1.00  1.00  1.00  1.00  1.00
   NELECT =     749.0000    total number of electrons
   NUPDOWN=      -1.0000    fix difference up-down

 DOS related values:
   EMIN   =  10.00;   EMAX   =-10.00  energy-range for DOS
   EFERMI =   0.00
   ISMEAR =     1;   SIGMA  =   0.10  broadening in eV -4-tet -1-fermi 0-gaus

 Electronic relaxation 2 (details)
   IALGO  =     68    algorithm
   LDIAG  =      T    sub-space diagonalisation (order eigenvalues)
   LSUBROT=      F    optimize rotation matrix (better conditioning)
   TURBO    =      0    0=normal 1=particle mesh
   IRESTART =      0    0=no restart 2=restart with 2 vectors
   NREBOOT  =      0    no. of reboots
   NMIN     =      0    reboot dimension
   EREF     =   0.00    reference energy to select bands
   IMIX   =      4    mixing-type and parameters
     AMIX     =   0.40;   BMIX     =  1.00
     AMIX_MAG =   1.60;   BMIX_MAG =  1.00
     AMIN     =   0.10
     WC   =   100.;   INIMIX=   1;  MIXPRE=   1;  MAXMIX= -45

 Intra band minimization:
   WEIMIN = 0.0010     energy-eigenvalue tresh-hold
   EBREAK =  0.48E-09  absolut break condition
   DEPER  =   0.30     relativ break condition  

   TIME   =   0.40     timestep for ELM

  volume/ion in A,a.u.               =      26.51       178.89
  Fermi-wavevector in a.u.,A,eV,Ry     =   1.157205  2.186800 18.219881  1.339123
  Thomas-Fermi vector in A             =   2.293819
 
 Write flags
   LWAVE        =      F    write WAVECAR
   LDOWNSAMPLE  =      F    k-point downsampling of WAVECAR
   LCHARG       =      F    write CHGCAR
   LVTOT        =      F    write LOCPOT, total local potential
   LVHAR        =      F    write LOCPOT, Hartree potential only
   LELF         =      F    write electronic localiz. function (ELF)
   LORBIT       =     11    0 simple, 1 ext, 2 COOP (PROOUT), +10 PAW based schemes


 Dipole corrections
   LMONO  =      F    monopole corrections only (constant potential shift)
   LDIPOL =      F    correct potential (dipole corrections)
   IDIPOL =      0    1-x, 2-y, 3-z, 4-all directions 
   EPSILON=  1.0000000 bulk dielectric constant

 Exchange correlation treatment:
   GGA     =    PE    GGA type
   LEXCH   =     8    internal setting for exchange type
   VOSKOWN=      0    Vosko Wilk Nusair interpolation
   LHFCALC =     F    Hartree Fock is set to
   LHFONE  =     F    Hartree Fock one center treatment
   AEXX    =    0.0000 exact exchange contribution

 Linear response parameters
   LEPSILON=     F    determine dielectric tensor
   LRPA    =     F    only Hartree local field effects (RPA)
   LNABLA  =     F    use nabla operator in PAW spheres
   LVEL    =     F    velocity operator in full k-point grid
   LINTERFAST=   F  fast interpolation
   KINTER  =     0    interpolate to denser k-point grid
   CSHIFT  =0.1000    complex shift for real part using Kramers Kronig
   OMEGAMAX=  -1.0    maximum frequency
   DEG_THRESHOLD= 0.2000000E-02 threshold for treating states as degnerate
   RTIME   =   -0.100 relaxation time in fs
  (WPLASMAI=    0.000 imaginary part of plasma frequency in eV, 0.658/RTIME)
   DFIELD  = 0.0000000 0.0000000 0.0000000 field for delta impulse in time
 
 Orbital magnetization related:
   ORBITALMAG=     F  switch on orbital magnetization
   LCHIMAG   =     F  perturbation theory with respect to B field
   DQ        =  0.001000  dq finite difference perturbation B field
   LLRAUG    =     F  two centre corrections for induced B field



--------------------------------------------------------------------------------------------------------


 conjugate gradient relaxation of ions
   using selective dynamics as specified on POSCAR
 charge density and potential will be updated during run
 spin polarized calculation
 RMM-DIIS sequential band-by-band and
  variant of blocked Davidson during initial phase
 perform sub-space diagonalisation
    before iterative eigenvector-optimisation
 modified Broyden-mixing scheme, WC =      100.0
 initial mixing is a Kerker type mixing with AMIX =  0.4000 and BMIX =      1.0000
 Hartree-type preconditioning will be used
 using additional bands          149
 real space projection scheme for non local part
 use partial core corrections
 calculate Harris-corrections to forces 
   (improved forces if not selfconsistent)
 use gradient corrections 
 use of overlap-Matrix (Vanderbilt PP)
 Methfessel and Paxton  Order N= 1 SIGMA  =   0.10


--------------------------------------------------------------------------------------------------------


  energy-cutoff  :      500.00
  volume of cell :     2120.68
      direct lattice vectors                 reciprocal lattice vectors
     8.956448702 -5.157062018 -0.027112067     0.111626475 -0.000043300  0.000003473
     0.004005464 10.327303782  0.016050166     0.055741969  0.096809101 -0.000016830
    -0.000711404  0.004394484 22.922171621     0.000093000 -0.000067837  0.043625900

  length of vectors
    10.335085731 10.327317031 22.922172053     0.111626483  0.111710203  0.043626052


 
 k-points in units of 2pi/SCALE and weight: Automatic mesh                          
   0.00000000  0.00000000  0.00000000       1.000
 
 k-points in reciprocal lattice and weights: Automatic mesh                          
   0.00000000  0.00000000  0.00000000       1.000
 
 position of ions in fractional coordinates (direct lattice) 
   0.43094070  0.03430324  0.46693038
   0.02387461  0.71585994  0.27892261
   0.77275893  0.44862021  0.28073898
   0.09852793  0.11889278  0.37497369
   0.68990123  0.54424933  0.46910703
   0.59945032  0.11258683  0.09512611
   0.35263027  0.61967717  0.37514795
   0.68329288  0.28217750  0.47175607
   0.52150720  0.94882741  0.28044431
   0.34532509  0.11793979  0.09755867
   0.85687334  0.11179707  0.37290192
   0.27376336  0.95267915  0.27968941
   0.25786660  0.18886710  0.27766430
   0.43308520  0.54023429  0.18551883
   0.85645801  0.11476580  0.09764292
   0.68387150  0.77896650  0.46825764
   0.60271536  0.61893779  0.09309344
   0.85373647  0.61749597  0.09365226
   0.94346606  0.29128068  0.18856136
   0.85379275  0.62653844  0.37698804
   0.59869381  0.86314691  0.37361890
   0.68027233  0.02133626  0.19162446
   0.27567890  0.70830600  0.27764383
   0.17928925  0.02815319  0.46700045
   0.52223847  0.71577460  0.27885495
   0.43263175  0.77909073  0.46458044
   0.68003911  0.28446761  0.18712492
   0.10646013  0.62025329  0.09463625
   0.68705953  0.53646168  0.18603402
   0.08830541  0.86907579  0.37636720
   0.34923926  0.61992437  0.09342856
   0.17723480  0.02423792  0.18844568
   0.11020298  0.37084113  0.09724450
   0.01285822  0.95680529  0.27939306
   0.60074293  0.36688802  0.37800194
   0.59428663  0.86008693  0.09650371
   0.85521094  0.35653599  0.37546428
   0.10277499  0.11661357  0.09857004
   0.59899205  0.36571741  0.09451409
   0.00459940  0.19451538  0.28098422
   0.42308875  0.02622379  0.18992356
   0.33873819  0.10692730  0.37482166
   0.10527568  0.61711704  0.37406003
   0.59886544  0.62221841  0.37727313
   0.59696796  0.10450288  0.37168298
   0.51724258  0.19485828  0.27953747
   0.93728380  0.28616587  0.46931456
   0.18412229  0.78730127  0.18613460
   0.42296582  0.78223978  0.18313809
   0.33602615  0.36663104  0.37620475
   0.42906234  0.28684219  0.18472919
   0.35301580  0.86331397  0.37432243
   0.18490986  0.54051297  0.18630090
   0.94348415  0.02971612  0.19212990
   0.34260468  0.36263768  0.09582860
   0.18536482  0.28060701  0.18357357
   0.93850557  0.03373852  0.46562929
   0.10174966  0.86795906  0.09925364
   0.77158651  0.19327919  0.28155670
   0.18756398  0.52725066  0.46625162
   0.18916151  0.78621786  0.46827685
   0.93667577  0.79194208  0.18513687
   0.25488605  0.44246005  0.28124331
   0.93254327  0.78251292  0.46901906
   0.35031154  0.86534583  0.09896825
   0.17961531  0.28185789  0.46885946
   0.84929762  0.86659107  0.37625350
   0.69486020  0.78599382  0.18482725
   0.76721670  0.95362291  0.28385027
   0.10724540  0.36445900  0.37828358
   0.76805237  0.71309208  0.27931980
   0.84802511  0.36237529  0.09120744
   0.68248423  0.03364992  0.46703457
   0.42161702  0.53533172  0.46475112
   0.93948423  0.54446000  0.18808937
   0.01698655  0.44823814  0.28018877
   0.85562560  0.86975952  0.09501159
   0.92530022  0.53247091  0.46975599
   0.51379389  0.44660652  0.28039889
   0.42171109  0.28269644  0.46800053
 
 position of ions in cartesian coordinates  (Angst):
   3.85950351 -1.86607605 10.69192528
   0.21650064  7.27100590  6.40435437
   6.92277295  0.64910516  6.42139634
   0.88266978  0.72137506  8.59444814
   6.18091125  2.06482618 10.74298252
   5.36932929 -1.92826599  2.16605176
   3.16053018  4.58270680  8.59959112
   6.12067231 -0.60757790 10.79967723
   4.67445344  7.11061637  6.42948240
   3.09328943 -0.56243412  2.22878715
   7.67472460 -3.26274795  8.52628459
   2.45556442  8.42802142  6.41895703
   2.31012791  0.62187411  6.36070882
   3.88093731  3.34653168  4.24942344
   7.67121250 -3.23115672  2.21680948
   6.12784704  4.51991371 10.72744332
   5.40060215  3.28412716  2.12749696
   7.64885366  1.97470810  2.13347747
   8.45113795 -1.85654027  4.30133171
   7.64919232  2.06904733  8.62829256
   5.36536188  5.82812112  8.56177847
   6.09277340 -3.28701845  4.37434769
   2.47174354  5.89441813  6.36809372
   1.60557554 -0.63180706 10.70025541
   4.68007066  4.70003096  6.38929029
   3.87763417  5.81683952 10.64996752
   6.09174172 -0.56839815  4.27543807
   0.95592175  5.85693853  2.17633712
   6.15562991  1.99781168  4.25428634
   0.79411620  8.52146718  8.63870812
   3.13036010  4.60150940  2.14206668
   1.58735746 -0.66287042  4.31516797
   0.98844356  3.26189274  2.23201939
   0.11879765  9.81613601  6.41930399
   5.38172386  0.69255664  8.65422656
   5.32607412  5.81803012  2.20976676
   7.66081387 -0.72667036  8.58899250
   0.92089585  0.67471996  2.25852457
   5.36623916  0.68825099  2.15609806
   0.04177354  1.98633484  6.44376592
   3.78934259 -1.91023929  4.34241057
   3.03405284 -0.64097595  8.58425867
   0.94510196  5.83188570  8.58131889
   5.36593149  3.33911028  8.64166957
   5.34686711 -1.99773449  8.50527333
   4.63323830 -0.65386296  6.39670986
   8.39554660 -1.87624644 10.73689030
   1.65210294  7.18198731  4.27425357
   3.79127463  5.89797167  4.19901038
   3.01080188  2.05505562  8.62020407
   3.84389234  0.75041718  4.22736519
   3.16495962  7.09682619  8.58456836
   1.65816813  4.62926869  4.27408328
   8.45024972 -4.55787454  4.37893171
   3.06990560  1.97865700  2.19313140
   1.66120386  1.94278272  4.20738300
   8.40548090 -4.48945726 10.64833119
   0.91472161  8.43938372  2.28628131
   6.91124884 -1.98182924  6.43607389
   1.68168738  4.47984763 10.69087678
   1.69703140  7.14605088 10.74141258
   8.39232886  3.34894497  4.23105466
   2.28444605  3.25619205  6.44689849
   8.35507659  3.27412631 10.73821167
   3.14094302  7.13054584  2.27295848
   1.60951076  1.98660515 10.74693102
   7.60989396  4.57132218  8.61543011
   6.22649654  4.53457205  4.23041820
   6.87515483  5.89301671  6.50096947
   0.96172862  3.21246998  8.67402313
   6.88167923  3.40465226  6.39323823
   7.59668003 -0.63055756  2.07349713
   6.11243754 -3.17004820 10.68748305
   3.77800487  3.35627046 10.65026621
   8.41648936  0.77865189  4.29468420
   0.15373523  4.54272202  6.42926892
   7.66678299  4.57017401  2.16863389
   8.28920258  0.72922260 10.75128698
   4.60335803  1.96380649  6.42058951
   3.77783312  0.74675843 10.72069230
 


--------------------------------------------------------------------------------------------------------


 k-point  1 :   0.0000 0.0000 0.0000  plane waves:   53745

 maximum and minimum number of plane-waves per node :      3361     3355

 maximum number of plane-waves:     53745
 maximum index in each direction: 
   IXMAX=   18   IYMAX=   18   IZMAX=   41
   IXMIN=  -18   IYMIN=  -18   IZMIN=  -41


 real space projection operators:
  total allocation   :      75644.16 KBytes
  max/ min on nodes  :       4746.38       4716.14


 parallel 3D FFT for wavefunctions:
    minimum data exchange during FFTs selected (reduces bandwidth)
 parallel 3D FFT for charge:
    minimum data exchange during FFTs selected (reduces bandwidth)


 total amount of memory used by VASP MPI-rank0    90184. kBytes
=======================================================================

   base      :      30000. kBytes
   nonlr-proj:      16022. kBytes
   fftplans  :       7274. kBytes
   grid      :      22246. kBytes
   one-center:        155. kBytes
   wavefun   :      14487. kBytes
 
     INWAV:  cpu time    0.0000: real time    0.0002
 Broyden mixing: mesh for mixing (old mesh)
   NGX = 37   NGY = 37   NGZ = 83
  (NGX  =160   NGY  =160   NGZ  =336)
  gives a total of 113627 points

 initial charge density was supplied:
 charge density of overlapping atoms calculated
 number of electron     749.0000000 magnetization     148.0000000
 keeping initial charge density in first step


--------------------------------------------------------------------------------------------------------


 Maximum index for non-local projection operator          522
 Maximum index for augmentation-charges         1005 (set IRDMAX)


--------------------------------------------------------------------------------------------------------


 First call to EWALD:  gamma=   0.138
 Maximum number of real-space cells 4x 4x 2
 Maximum number of reciprocal cells 2x 2x 5

    FEWALD:  cpu time    0.0024: real time    0.0025


--------------------------------------- Iteration      1(   1)  ---------------------------------------


    POTLOK:  cpu time    0.2489: real time    0.2534
    SETDIJ:  cpu time    0.0239: real time    0.0245
     EDDAV:  cpu time   11.3811: real time   11.4637
       DOS:  cpu time    0.0020: real time    0.0020
    --------------------------------------------
      LOOP:  cpu time   11.6559: real time   11.7436

 eigenvalue-minimisations  :  2104
 total energy-change (2. order) : 0.6709635E+04  (-0.3115363E+05)
 number of electron     749.0000000 magnetization     148.0000000
 augmentation part      749.0000000 magnetization     148.0000000

 Free energy of the ion-electron system (eV)
  ---------------------------------------------------
  alpha Z        PSCENC =      1917.81856563
  Ewald energy   TEWEN  =    247926.03391304
  -Hartree energ DENC   =   -314526.16901844
  -exchange      EXHF   =         0.00000000
  -V(xc)+E(xc)   XCENC  =       592.88706155
  PAW double counting   =     60021.00710924   -60989.29064035
  entropy T*S    EENTRO =         0.00843990
  eigenvalues    EBANDS =      6894.69159117
  atomic energy  EATOM  =     64872.64761690
  Solvation  Ediel_sol  =         0.00000000
  ---------------------------------------------------
  free energy    TOTEN  =      6709.63463865 eV

  energy without entropy =     6709.62619875  energy(sigma->0) =     6709.63182535


--------------------------------------------------------------------------------------------------------




--------------------------------------- Iteration      1(   2)  ---------------------------------------


     EDDAV:  cpu time   11.3717: real time   11.4540
       DOS:  cpu time    0.0010: real time    0.0010
    --------------------------------------------
      LOOP:  cpu time   11.3728: real time   11.4550

 eigenvalue-minimisations  :  2096
 total energy-change (2. order) :-0.6325259E+04  (-0.5785019E+04)
 number of electron     749.0000000 magnetization     148.0000000
 augmentation part      749.0000000 magnetization     148.0000000

 Free energy of the ion-electron system (eV)
  ---------------------------------------------------
  alpha Z        PSCENC =      1917.81856563
  Ewald energy   TEWEN  =    247926.03391304
  -Hartree energ DENC   =   -314526.16901844
  -exchange      EXHF   =         0.00000000
  -V(xc)+E(xc)   XCENC  =       592.88706155
  PAW double counting   =     60021.00710924   -60989.29064035
  entropy T*S    EENTRO =        -0.00398292
  eigenvalues    EBANDS =       569.44550858
  atomic energy  EATOM  =     64872.64761690
  Solvation  Ediel_sol  =         0.00000000
  ---------------------------------------------------
  free energy    TOTEN  =       384.37613323 eV

  energy without entropy =      384.38011615  energy(sigma->0) =      384.37746087


--------------------------------------------------------------------------------------------------------




--------------------------------------- Iteration      1(   3)  ---------------------------------------


     EDDAV:  cpu time   12.0072: real time   12.0898
       DOS:  cpu time    0.0011: real time    0.0011
    --------------------------------------------
      LOOP:  cpu time   12.0083: real time   12.0909

 eigenvalue-minimisations  :  2268
 total energy-change (2. order) :-0.8661974E+03  (-0.7085730E+03)
 number of electron     749.0000000 magnetization     148.0000000
 augmentation part      749.0000000 magnetization     148.0000000

 Free energy of the ion-electron system (eV)
  ---------------------------------------------------
  alpha Z        PSCENC =      1917.81856563
  Ewald energy   TEWEN  =    247926.03391304
  -Hartree energ DENC   =   -314526.16901844
  -exchange      EXHF   =         0.00000000
  -V(xc)+E(xc)   XCENC  =       592.88706155
  PAW double counting   =     60021.00710924   -60989.29064035
  entropy T*S    EENTRO =         0.02840360
  eigenvalues    EBANDS =      -296.78426009
  atomic energy  EATOM  =     64872.64761690
  Solvation  Ediel_sol  =         0.00000000
  ---------------------------------------------------
  free energy    TOTEN  =      -481.82124892 eV

  energy without entropy =     -481.84965252  energy(sigma->0) =     -481.83071679


--------------------------------------------------------------------------------------------------------




--------------------------------------- Iteration      1(   4)  ---------------------------------------


     EDDAV:  cpu time   12.1931: real time   12.2740
       DOS:  cpu time    0.0012: real time    0.0012
    --------------------------------------------
      LOOP:  cpu time   12.1943: real time   12.2752

 eigenvalue-minimisations  :  2304
 total energy-change (2. order) :-0.7120046E+02  (-0.6743159E+02)
 number of electron     749.0000000 magnetization     148.0000000
 augmentation part      749.0000000 magnetization     148.0000000

 Free energy of the ion-electron system (eV)
  ---------------------------------------------------
  alpha Z        PSCENC =      1917.81856563
  Ewald energy   TEWEN  =    247926.03391304
  -Hartree energ DENC   =   -314526.16901844
  -exchange      EXHF   =         0.00000000
  -V(xc)+E(xc)   XCENC  =       592.88706155
  PAW double counting   =     60021.00710924   -60989.29064035
  entropy T*S    EENTRO =         0.01493969
  eigenvalues    EBANDS =      -367.97126108
  atomic energy  EATOM  =     64872.64761690
  Solvation  Ediel_sol  =         0.00000000
  ---------------------------------------------------
  free energy    TOTEN  =      -553.02171383 eV

  energy without entropy =     -553.03665351  energy(sigma->0) =     -553.02669372


--------------------------------------------------------------------------------------------------------




--------------------------------------- Iteration      1(   5)  ---------------------------------------


     EDDAV:  cpu time   12.8867: real time   12.9880
       DOS:  cpu time    0.0013: real time    0.0013
    CHARGE:  cpu time    0.2975: real time    0.2994
    MIXING:  cpu time    0.0080: real time    0.0088
    --------------------------------------------
      LOOP:  cpu time   13.1935: real time   13.2976

 eigenvalue-minimisations  :  2408
 total energy-change (2. order) :-0.1737241E+01  (-0.1730534E+01)
 number of electron     748.9999979 magnetization     143.2167090
 augmentation part      338.5222836 magnetization     114.6552757

 Broyden mixing:
  rms(total) = 0.10069E+02    rms(broyden)= 0.10069E+02
  rms(prec ) = 0.10368E+02
  weight for this iteration     100.00

 Free energy of the ion-electron system (eV)
  ---------------------------------------------------
  alpha Z        PSCENC =      1917.81856563
  Ewald energy   TEWEN  =    247926.03391304
  -Hartree energ DENC   =   -314526.16901844
  -exchange      EXHF   =         0.00000000
  -V(xc)+E(xc)   XCENC  =       592.88706155
  PAW double counting   =     60021.00710924   -60989.29064035
  entropy T*S    EENTRO =         0.01443606
  eigenvalues    EBANDS =      -369.70799888
  atomic energy  EATOM  =     64872.64761690
  Solvation  Ediel_sol  =         0.00000000
  ---------------------------------------------------
  free energy    TOTEN  =      -554.75895525 eV

  energy without entropy =     -554.77339131  energy(sigma->0) =     -554.76376727


--------------------------------------------------------------------------------------------------------




--------------------------------------- Iteration      1(   6)  ---------------------------------------


    POTLOK:  cpu time    0.2331: real time    0.2348
    SETDIJ:  cpu time    0.0230: real time    0.0232
    EDDIAG:  cpu time    1.4583: real time    1.4690
  RMM-DIIS:  cpu time    4.6171: real time    4.6475
    ORTHCH:  cpu time    0.6156: real time    0.6190
       DOS:  cpu time    0.0011: real time    0.0011
    CHARGE:  cpu time    0.2930: real time    0.2944
    MIXING:  cpu time    0.0075: real time    0.0079
    --------------------------------------------
      LOOP:  cpu time    7.2488: real time    7.2969

 eigenvalue-minimisations  :  2100
 total energy-change (2. order) :-0.1301550E+03  (-0.8743850E+02)
 number of electron     748.9999969 magnetization     140.5843823
 augmentation part      397.6136773 magnetization     124.9621539

 Broyden mixing:
  rms(total) = 0.17905E+02    rms(broyden)= 0.17904E+02
  rms(prec ) = 0.19489E+02
  weight for this iteration     100.00

 eigenvalues of (default mixing * dielectric matrix)
  average eigenvalue GAMMA=   0.2373
  0.2373

 Free energy of the ion-electron system (eV)
  ---------------------------------------------------
  alpha Z        PSCENC =      1917.81856563
  Ewald energy   TEWEN  =    247926.03391304
  -Hartree energ DENC   =   -313524.32882760
  -exchange      EXHF   =         0.00000000
  -V(xc)+E(xc)   XCENC  =       545.46329315
  PAW double counting   =     65604.25318416   -66393.05134185
  entropy T*S    EENTRO =        -0.00698970
  eigenvalues    EBANDS =     -1633.74333604
  atomic energy  EATOM  =     64872.64761690
  Solvation  Ediel_sol  =         0.00000000
  ---------------------------------------------------
  free energy    TOTEN  =      -684.91392230 eV

  energy without entropy =     -684.90693261  energy(sigma->0) =     -684.91159241


--------------------------------------------------------------------------------------------------------




--------------------------------------- Iteration      1(   7)  ---------------------------------------


    POTLOK:  cpu time    0.2297: real time    0.2319
    SETDIJ:  cpu time    0.0230: real time    0.0231
    EDDIAG:  cpu time    1.4615: real time    1.4710
  RMM-DIIS:  cpu time    4.5948: real time    4.6250
    ORTHCH:  cpu time    0.6123: real time    0.6159
       DOS:  cpu time    0.0012: real time    0.0012
    CHARGE:  cpu time    0.2910: real time    0.2927
    MIXING:  cpu time    0.0080: real time    0.0080
    --------------------------------------------
      LOOP:  cpu time    7.2214: real time    7.2686

 eigenvalue-minimisations  :  2101
 total energy-change (2. order) : 0.1317716E+03  (-0.2399509E+02)
 number of electron     748.9999975 magnetization     138.3430131
 augmentation part      374.3710576 magnetization     113.7054751

 Broyden mixing:
  rms(total) = 0.12194E+02    rms(broyden)= 0.12194E+02
  rms(prec ) = 0.16294E+02
  weight for this iteration     100.00

 eigenvalues of (default mixing * dielectric matrix)
  average eigenvalue GAMMA=   0.2663
  0.3175  0.2151

 Free energy of the ion-electron system (eV)
  ---------------------------------------------------
  alpha Z        PSCENC =      1917.81856563
  Ewald energy   TEWEN  =    247926.03391304
  -Hartree energ DENC   =   -313562.07920579
  -exchange      EXHF   =         0.00000000
  -V(xc)+E(xc)   XCENC  =       552.90311953
  PAW double counting   =     66901.68819740   -67850.16438176
  entropy T*S    EENTRO =        -0.00322756
  eigenvalues    EBANDS =     -1311.98687623
  atomic energy  EATOM  =     64872.64761690
  Solvation  Ediel_sol  =         0.00000000
  ---------------------------------------------------
  free energy    TOTEN  =      -553.14227884 eV

  energy without entropy =     -553.13905128  energy(sigma->0) =     -553.14120299


--------------------------------------------------------------------------------------------------------




--------------------------------------- Iteration      1(   8)  ---------------------------------------


    POTLOK:  cpu time    0.2294: real time    0.2311
    SETDIJ:  cpu time    0.0228: real time    0.0229
    EDDIAG:  cpu time    1.4546: real time    1.4641
  RMM-DIIS:  cpu time    4.6239: real time    4.6524
    ORTHCH:  cpu time    0.6122: real time    0.6157
       DOS:  cpu time    0.0012: real time    0.0012
    CHARGE:  cpu time    0.2924: real time    0.2938
    MIXING:  cpu time    0.0075: real time    0.0076
    --------------------------------------------
      LOOP:  cpu time    7.2441: real time    7.2889

 eigenvalue-minimisations  :  2098
 total energy-change (2. order) :-0.1841894E+03  (-0.1170885E+02)
 number of electron     748.9999979 magnetization     135.0560863
 augmentation part      358.8832019 magnetization     109.9435129

 Broyden mixing:
  rms(total) = 0.18899E+02    rms(broyden)= 0.18899E+02
  rms(prec ) = 0.26761E+02
  weight for this iteration     100.00

 eigenvalues of (default mixing * dielectric matrix)
  average eigenvalue GAMMA=   0.2473
  0.3697  0.3055  0.0667

 Free energy of the ion-electron system (eV)
  ---------------------------------------------------
  alpha Z        PSCENC =      1917.81856563
  Ewald energy   TEWEN  =    247926.03391304
  -Hartree energ DENC   =   -313930.59492064
  -exchange      EXHF   =         0.00000000
  -V(xc)+E(xc)   XCENC  =       556.34646257
  PAW double counting   =     67969.87368448   -68976.18485653
  entropy T*S    EENTRO =        -0.01271569
  eigenvalues    EBANDS =     -1073.25945433
  atomic energy  EATOM  =     64872.64761690
  Solvation  Ediel_sol  =         0.00000000
  ---------------------------------------------------
  free energy    TOTEN  =      -737.33170457 eV

  energy without entropy =     -737.31898887  energy(sigma->0) =     -737.32746600


--------------------------------------------------------------------------------------------------------




--------------------------------------- Iteration      1(   9)  ---------------------------------------


    POTLOK:  cpu time    0.2282: real time    0.2299
    SETDIJ:  cpu time    0.0231: real time    0.0233
    EDDIAG:  cpu time    1.4543: real time    1.4634
  RMM-DIIS:  cpu time    4.6159: real time    4.6447
    ORTHCH:  cpu time    0.6153: real time    0.6187
       DOS:  cpu time    0.0012: real time    0.0012
    CHARGE:  cpu time    0.2912: real time    0.2927
    MIXING:  cpu time    0.0081: real time    0.0081
    --------------------------------------------
      LOOP:  cpu time    7.2373: real time    7.2819

 eigenvalue-minimisations  :  2100
 total energy-change (2. order) : 0.1228331E+03  (-0.1012443E+02)
 number of electron     748.9999970 magnetization     131.8882091
 augmentation part      367.6083672 magnetization     101.5865755

 Broyden mixing:
  rms(total) = 0.15665E+02    rms(broyden)= 0.15664E+02
  rms(prec ) = 0.18316E+02
  weight for this iteration     100.00

 eigenvalues of (default mixing * dielectric matrix)
  average eigenvalue GAMMA=   0.2578
  0.4202  0.4202  0.1113  0.0794

 Free energy of the ion-electron system (eV)
  ---------------------------------------------------
  alpha Z        PSCENC =      1917.81856563
  Ewald energy   TEWEN  =    247926.03391304
  -Hartree energ DENC   =   -314142.50880815
  -exchange      EXHF   =         0.00000000
  -V(xc)+E(xc)   XCENC  =       558.82584160
  PAW double counting   =     69282.78048667   -70305.70416116
  entropy T*S    EENTRO =         0.01089134
  eigenvalues    EBANDS =      -724.40292404
  atomic energy  EATOM  =     64872.64761690
  Solvation  Ediel_sol  =         0.00000000
  ---------------------------------------------------
  free energy    TOTEN  =      -614.49857817 eV

  energy without entropy =     -614.50946952  energy(sigma->0) =     -614.50220862


--------------------------------------------------------------------------------------------------------




--------------------------------------- Iteration      1(  10)  ---------------------------------------


    POTLOK:  cpu time    0.2369: real time    0.2386
    SETDIJ:  cpu time    0.0234: real time    0.0236
    EDDIAG:  cpu time    1.4475: real time    1.4575
  RMM-DIIS:  cpu time    4.5896: real time    4.6181
    ORTHCH:  cpu time    0.6123: real time    0.6156
       DOS:  cpu time    0.0012: real time    0.0012
    CHARGE:  cpu time    0.2885: real time    0.2898
    MIXING:  cpu time    0.0079: real time    0.0079
    --------------------------------------------
      LOOP:  cpu time    7.2072: real time    7.2522

 eigenvalue-minimisations  :  2104
 total energy-change (2. order) : 0.1276805E+03  (-0.1150602E+02)
 number of electron     748.9999976 magnetization     128.9912459
 augmentation part      375.1917264 magnetization      97.5314465

 Broyden mixing:
  rms(total) = 0.10553E+02    rms(broyden)= 0.10553E+02
  rms(prec ) = 0.12621E+02
  weight for this iteration     100.00

 eigenvalues of (default mixing * dielectric matrix)
  average eigenvalue GAMMA=   0.3145
  0.6886  0.4913  0.2041  0.1216  0.0672

 Free energy of the ion-electron system (eV)
  ---------------------------------------------------
  alpha Z        PSCENC =      1917.81856563
  Ewald energy   TEWEN  =    247926.03391304
  -Hartree energ DENC   =   -313794.32962280
  -exchange      EXHF   =         0.00000000
  -V(xc)+E(xc)   XCENC  =       566.15203496
  PAW double counting   =     70380.31919695   -71407.67886014
  entropy T*S    EENTRO =        -0.00323209
  eigenvalues    EBANDS =      -947.77768598
  atomic energy  EATOM  =     64872.64761690
  Solvation  Ediel_sol  =         0.00000000
  ---------------------------------------------------
  free energy    TOTEN  =      -486.81807354 eV

  energy without entropy =     -486.81484145  energy(sigma->0) =     -486.81699618


--------------------------------------------------------------------------------------------------------




--------------------------------------- Iteration      1(  11)  ---------------------------------------


    POTLOK:  cpu time    0.2289: real time    0.2305
    SETDIJ:  cpu time    0.0234: real time    0.0235
    EDDIAG:  cpu time    1.4567: real time    1.4664
  RMM-DIIS:  cpu time    4.6108: real time    4.6400
    ORTHCH:  cpu time    0.6130: real time    0.6164
       DOS:  cpu time    0.0012: real time    0.0012
    CHARGE:  cpu time    0.2919: real time    0.2932
    MIXING:  cpu time    0.0080: real time    0.0080
    --------------------------------------------
      LOOP:  cpu time    7.2339: real time    7.2792

 eigenvalue-minimisations  :  2105
 total energy-change (2. order) :-0.2022219E+02  (-0.1279545E+02)
 number of electron     748.9999979 magnetization     125.3388500
 augmentation part      370.4863456 magnetization      95.1591726

 Broyden mixing:
  rms(total) = 0.13719E+02    rms(broyden)= 0.13718E+02
  rms(prec ) = 0.15822E+02
  weight for this iteration     100.00

 eigenvalues of (default mixing * dielectric matrix)
  average eigenvalue GAMMA=   0.3705
  1.1610  0.5268  0.2371  0.1148  0.1148  0.0685

 Free energy of the ion-electron system (eV)
  ---------------------------------------------------
  alpha Z        PSCENC =      1917.81856563
  Ewald energy   TEWEN  =    247926.03391304
  -Hartree energ DENC   =   -313968.10095770
  -exchange      EXHF   =         0.00000000
  -V(xc)+E(xc)   XCENC  =       570.40077713
  PAW double counting   =     71356.62466876   -72425.68034225
  entropy T*S    EENTRO =        -0.00515436
  eigenvalues    EBANDS =      -756.77934685
  atomic energy  EATOM  =     64872.64761690
  Solvation  Ediel_sol  =         0.00000000
  ---------------------------------------------------
  free energy    TOTEN  =      -507.04025969 eV

  energy without entropy =     -507.03510533  energy(sigma->0) =     -507.03854157


--------------------------------------------------------------------------------------------------------




--------------------------------------- Iteration      1(  12)  ---------------------------------------


    POTLOK:  cpu time    0.2288: real time    0.2303
    SETDIJ:  cpu time    0.0232: real time    0.0234
[...]
   -.701E+01 0.290E+02 0.217E+02   0.742E+01 -.290E+02 -.213E+02   -.395E+00 -.108E-01 -.476E+00   -.108E-03 0.478E-04 0.977E-04
   -.618E+02 0.542E+02 -.281E+04   0.613E+02 -.546E+02 0.281E+04   0.626E+00 0.383E+00 0.543E+00   0.405E-04 0.803E-04 0.199E-04
   0.344E+00 -.967E+01 -.282E+04   -.730E+00 0.936E+01 0.281E+04   0.460E+00 0.361E+00 0.142E+01   0.130E-03 -.174E-03 -.453E-05
   0.844E+02 0.549E+02 0.143E+04   -.847E+02 -.541E+02 -.143E+04   0.172E+00 -.666E+00 0.216E+00   0.364E-04 -.459E-04 -.101E-03
   -.499E+02 -.279E+02 -.152E+02   0.494E+02 0.278E+02 0.153E+02   0.658E+00 0.114E+00 -.485E-01   0.594E-04 0.363E-05 0.690E-04
   0.388E+02 -.813E+01 -.252E+04   -.386E+02 0.756E+01 0.251E+04   -.281E+00 0.559E+00 0.267E+01   0.410E-04 -.190E-03 0.613E-04
   0.386E+00 -.335E+02 0.251E+04   -.224E+00 0.333E+02 -.251E+04   0.678E-02 0.207E+00 -.246E+01   -.824E-04 0.693E-04 0.336E-04
   -.255E+02 0.584E+01 -.250E+04   0.259E+02 -.518E+01 0.250E+04   -.317E+00 -.695E+00 0.209E+01   0.124E-03 0.233E-03 0.656E-05
   0.462E+02 -.123E+01 -.132E+04   -.458E+02 0.125E+01 0.132E+04   -.353E+00 0.505E-01 0.457E+00   -.788E-04 -.110E-04 -.758E-05
   0.238E+02 -.129E+02 0.124E+04   -.226E+02 0.126E+02 -.124E+04   -.100E+01 0.840E-01 -.173E+00   -.102E-03 -.231E-04 0.749E-04
   0.878E+02 0.165E+02 -.428E+02   -.873E+02 -.170E+02 0.423E+02   -.619E+00 0.506E+00 0.493E+00   -.139E-03 0.140E-04 0.968E-04
   -.462E+02 0.438E+02 -.125E+04   0.462E+02 -.434E+02 0.125E+04   0.416E-01 -.453E+00 0.134E+00   0.100E-03 0.985E-04 0.975E-04
   0.462E+02 -.163E+01 -.152E+02   -.461E+02 0.252E+01 0.149E+02   -.312E-01 -.100E+01 0.259E+00   -.657E-04 -.483E-05 0.275E-04
   -.852E+01 -.489E+01 0.251E+04   0.826E+01 0.490E+01 -.250E+04   0.424E+00 0.107E+00 -.276E+01   -.358E-05 0.359E-04 -.117E-04
   0.218E+02 0.274E+02 -.251E+04   -.211E+02 -.271E+02 0.251E+04   -.851E+00 -.313E+00 0.203E+01   -.153E-03 0.114E-03 -.531E-04
   -.128E+02 -.101E+02 -.249E+04   0.121E+02 0.916E+01 0.249E+04   0.821E+00 0.991E+00 0.215E+01   -.846E-04 0.939E-04 -.401E-05
   0.271E+02 0.400E+02 0.123E+04   -.267E+02 -.399E+02 -.123E+04   -.459E+00 -.197E+00 -.188E+00   0.147E-04 -.527E-05 0.673E-05
   -.880E+00 -.445E+02 -.661E+01   0.105E+01 0.437E+02 0.669E+01   -.155E+00 0.806E+00 -.101E+00   0.131E-03 0.113E-04 0.421E-04
   0.306E+02 -.849E+01 0.251E+04   -.300E+02 0.829E+01 -.251E+04   -.967E-01 0.236E+00 -.302E+01   0.108E-03 -.106E-03 -.266E-04
   0.452E+02 -.429E+02 -.254E+04   -.446E+02 0.424E+02 0.254E+04   -.721E+00 0.577E+00 0.193E+01   0.153E-03 -.633E-04 0.389E-04
   -.176E+02 -.693E+02 0.191E+02   0.176E+02 0.691E+02 -.189E+02   0.208E-01 0.222E+00 -.204E+00   -.103E-03 -.416E-04 0.318E-04
   0.715E+01 -.218E+02 -.252E+04   -.729E+01 0.226E+02 0.252E+04   0.157E+00 -.867E+00 0.197E+01   0.202E-04 -.380E-04 -.191E-04
 -----------------------------------------------------------------------------------------------
   0.534E+00 0.236E+01 0.227E+01   -.205E-12 0.149E-12 0.728E-11   -.546E+00 -.237E+01 -.228E+01   0.249E-03 0.112E-03 0.329E-02
 
 
 POSITION                                       TOTAL-FORCE (eV/Angst)
 -----------------------------------------------------------------------------------
      3.84910     -1.91277     10.70419         0.005056      0.000922     -0.016126
      0.11315      7.18443      6.41946         0.011829      0.014769     -0.015721
      6.79781      0.69227      6.43316        -0.000124      0.005359     -0.007525
      0.93683      0.69562      8.61768         0.016283     -0.004864     -0.011577
      6.04267      1.98645     10.75306         0.020778     -0.015740     -0.002263
      5.36933     -1.92827      2.16605        -0.423896     -0.044550     -0.813411
      3.07492      4.47773      8.60662         0.010009      0.007276     -0.000708
      6.22213     -0.63408     10.70558        -0.001228      0.021632     -0.022058
      4.69093      7.21367      6.53748         0.011617      0.008021     -0.007330
      3.09329     -0.56243      2.22879        -0.236583     -0.090473     -0.197414
      7.60695     -3.10214      8.48029        -0.011136      0.017267      0.005646
      2.38287      8.48381      6.46711        -0.012129      0.009482      0.001808
      2.41047      0.79504      6.36321         0.015300     -0.016763      0.006497
      3.88094      3.34653      4.24942        -0.592547     -0.756709      0.506536
      7.67121     -3.23116      2.21681         0.157902     -0.449735     -0.965311
      6.22615      4.60284     10.95683         0.013159      0.027795     -0.025722
      5.40060      3.28413      2.12750        -0.269498      0.058218     -0.788401
      7.64885      1.97471      2.13348        -0.092804      0.006363     -0.251351
      8.45114     -1.85654      4.30133         0.176639      0.094607      0.441908
      7.63529      2.01297      8.62271        -0.010708      0.008924      0.003688
      5.38309      5.81221      8.69897        -0.013889     -0.022482      0.016184
      6.09277     -3.28702      4.37435         0.406381     -0.013737     -0.148823
      2.37045      5.81845      6.39290         0.015168      0.008509      0.009343
      1.58901     -0.54446     10.88886         0.002415      0.007521     -0.022833
      4.73082      4.53241      6.41352        -0.001925     -0.026798     -0.012220
      3.74825      5.78276     10.92941        -0.000973      0.008070     -0.024511
      6.09174     -0.56840      4.27544        -0.033788      0.394149      0.169414
      0.95592      5.85694      2.17634        -0.011154     -0.433179     -0.452764
      6.15563      1.99781      4.25429        -0.059535      0.224531      0.708390
      0.92014      8.45036      8.64610         0.011407      0.009468      0.000061
      3.13036      4.60151      2.14207         0.030762      0.060098      0.237426
      1.58736     -0.66287      4.31517        -0.108871      0.349846     -0.156998
      0.98844      3.26189      2.23202         0.183397     -0.040427     -0.064071
      0.09389      9.74901      6.44285         0.009098     -0.007461      0.005616
      5.29846      0.69980      8.54145         0.010113     -0.002143      0.009984
      5.32607      5.81803      2.20977         0.024512      0.191583      0.013766
      7.66958     -0.57315      8.54792        -0.002557     -0.003010      0.007479
      0.92090      0.67472      2.25852        -0.032169     -0.051946      0.254641
      5.36624      0.68825      2.15610        -0.171217      0.026292     -0.061183
      0.16426      1.99545      6.40122        -0.002033      0.003903      0.014932
      3.78934     -1.91024      4.34241         0.134625      0.117336     -0.043308
      3.17891     -0.58359      8.58879         0.000207      0.019690     -0.000201
      0.90505      5.85542      8.60357         0.001224     -0.007070     -0.000467
      5.37687      3.20246      8.52663        -0.000499     -0.006655     -0.011618
      5.36813     -1.80243      8.56576         0.006526     -0.003688     -0.007102
      4.61964     -0.54703      6.47094         0.002669     -0.019034      0.002394
      8.47489     -1.90183     10.58293        -0.002313      0.023181      0.006061
      1.65210      7.18199      4.27425        -0.004331      0.051578     -0.030253
      3.79127      5.89797      4.19901        -0.295758      0.157718     -0.095725
      3.20140      1.93167      8.57793         0.002886     -0.004926      0.001235
      3.84389      0.75042      4.22737         0.155203      0.041079      0.276733
      3.04293      7.18928      8.64714         0.015948      0.000176      0.001601
      1.65817      4.62927      4.27408         0.112089     -0.436997     -0.009445
      8.45025     -4.55787      4.37893        -0.191989     -0.202145     -0.296954
      3.06991      1.97866      2.19313        -0.076205     -0.018069      0.374540
      1.66120      1.94278      4.20738        -0.005708      0.158357      0.165756
      8.32592     -4.32106     10.64392         0.016496      0.031572      0.019476
      0.91472      8.43938      2.28628         0.084782      0.467104      0.204925
      6.90788     -1.83879      6.43017         0.007199     -0.010833      0.020124
      1.50467      4.59380     10.62415         0.007734      0.003020     -0.005575
      1.57437      7.11598     10.61405        -0.001182     -0.005464     -0.005123
      8.39233      3.34894      4.23105        -0.203763      0.148865      0.084057
      2.29775      3.28823      6.39832         0.013063      0.022822     -0.000431
      8.42820      3.24420     10.73838         0.011224      0.000345     -0.010444
      3.14094      7.13055      2.27296         0.215407     -0.023583      0.096251
      1.67496      2.05330     10.67637         0.021233      0.020274     -0.021511
      7.64034      4.57293      8.63450         0.013480      0.004035      0.003966
      6.22650      4.53457      4.23042         0.253764     -0.210102      0.108608
      7.01682      5.82467      6.41114         0.008161      0.015256      0.015990
      0.87170      3.31399      8.56498        -0.025285     -0.001123     -0.005224
      6.92502      3.34306      6.39566         0.002001      0.006508     -0.007904
      7.59668     -0.63056      2.07350         0.105644      0.103629      0.305337
      6.20214     -3.14098     10.73697         0.002805      0.008708     -0.006645
      3.81003      3.20748     10.66657         0.035791      0.007860      0.006812
      8.41649      0.77865      4.29468        -0.037023     -0.149528     -0.033782
      0.14856      4.49193      6.48793         0.005670     -0.008493     -0.002514
      7.66678      4.57017      2.16863         0.541943      0.082350      0.551086
      8.45077      0.60956     10.67445         0.003465     -0.000234     -0.009236
      4.61950      1.98992      6.40948         0.012604      0.008365      0.015864
      3.86410      0.68784     10.60039         0.007160      0.023528     -0.002355
 -----------------------------------------------------------------------------------
    total drift:                               -0.011946     -0.009939     -0.005191


--------------------------------------------------------------------------------------------------------



  FREE ENERGIE OF THE ION-ELECTRON SYSTEM (eV)
  ---------------------------------------------------
  free  energy   TOTEN  =      -538.41776205 eV

  energy  without entropy=     -538.44540876  energy(sigma->0) =     -538.42697762
 
 d Force = 0.2672067E-02[ 0.854E-03, 0.449E-02]  d Energy = 0.2673430E-02-0.136E-05
 d Force =-0.6336245E+02[-0.634E+02,-0.633E+02]  d Ewald  =-0.6336245E+02 0.793E-05


--------------------------------------------------------------------------------------------------------


    POTLOK:  cpu time    0.2707: real time    0.2722


--------------------------------------------------------------------------------------------------------


 Conjugate gradient step on ions:
 trial-energy change:   -0.002673  1 .order   -0.002672   -0.004491   -0.000854
  (g-gl).g = 0.140E-02      g.g   = 0.281E-02  gl.gl    = 0.610E-02
 g(Force)  = 0.281E-02   g(Stress)= 0.000E+00 ortho     = 0.205E-04
 gamma     =   0.22989
 trial     =   1.59703
 opt step  =   1.97183  (harmonic =   1.97183) maximal distance =0.00753081
 next E    =  -538.417861   (d E  =  -0.00277)


--------------------------------------------------------------------------------------------------------


  
 reached required accuracy - stopping structural energy minimisation
     LOOP+:  cpu time  222.5732: real time  224.2459
    4ORBIT:  cpu time    0.0000: real time    0.0000
 


 total charge     
 
# of ion       s       p       d       tot
------------------------------------------
    1        0.740   0.476   8.101   9.317
    2        0.752   0.676   8.105   9.534
    3        0.758   0.671   8.105   9.534
    4        0.723   0.662   8.096   9.480
    5        0.743   0.484   8.101   9.327
    6        0.737   0.479   8.124   9.339
    7        0.737   0.645   8.101   9.483
    8        0.747   0.495   8.108   9.350
    9        0.732   0.625   8.106   9.463
   10        0.756   0.513   8.088   9.358
   11        0.750   0.688   8.118   9.557
   12        0.743   0.664   8.109   9.516
   13        0.752   0.664   8.094   9.510
   14        0.732   0.653   8.103   9.488
   15        0.554   0.441   8.549   9.544
   16        0.540   0.382   8.547   9.469
   17        0.556   0.439   8.548   9.543
   18        0.570   0.445   8.544   9.559
   19        0.557   0.585   8.553   9.695
   20        0.560   0.621   8.538   9.720
   21        0.527   0.563   8.549   9.639
   22        0.555   0.597   8.546   9.697
   23        0.570   0.603   8.558   9.731
   24        0.534   0.425   8.533   9.492
   25        0.571   0.601   8.541   9.713
   26        0.517   0.394   8.543   9.454
   27        0.544   0.587   8.557   9.687
   28        0.579   0.460   8.540   9.580
   29        0.459   0.445   8.350   9.255
   30        0.460   0.457   8.354   9.271
   31        0.483   0.354   8.339   9.176
   32        0.477   0.487   8.351   9.315
   33        0.479   0.345   8.337   9.161
   34        0.491   0.479   8.367   9.337
   35        0.467   0.460   8.352   9.280
   36        0.479   0.351   8.345   9.175
   37        0.470   0.475   8.363   9.308
   38        0.496   0.371   8.339   9.205
   39        0.465   0.336   8.350   9.151
   40        0.486   0.485   8.357   9.328
   41        0.457   0.458   8.352   9.267
   42        0.464   0.465   8.352   9.280
   43        0.478   0.480   8.353   9.311
   44        0.460   0.439   8.346   9.246
   45        0.455   0.453   8.346   9.254
   46        0.476   0.461   8.366   9.303
   47        0.481   0.415   7.261   8.156
   48        0.456   0.479   7.272   8.206
   49        0.447   0.447   7.273   8.167
   50        0.452   0.473   7.290   8.216
   51        0.436   0.442   7.247   8.125
   52        0.425   0.431   7.237   8.093
   53        0.448   0.453   7.262   8.163
   54        0.454   0.450   7.269   8.173
   55        0.451   0.354   7.231   8.036
   56        0.445   0.455   7.255   8.156
   57        0.465   0.372   7.260   8.096
   58        0.462   0.366   7.256   8.083
   59        0.452   0.454   7.269   8.175
   60        0.485   0.409   7.268   8.162
   61        0.476   0.373   7.247   8.096
   62        0.459   0.470   7.276   8.204
   63        0.454   0.444   7.278   8.175
   64        0.454   0.351   6.133   6.938
   65        0.469   0.397   6.152   7.018
   66        0.462   0.386   6.177   7.025
   67        0.431   0.438   6.180   7.049
   68        0.451   0.467   6.198   7.116
   69        0.465   0.471   6.216   7.152
   70        0.460   0.496   6.240   7.195
   71        0.461   0.465   6.212   7.138
   72        0.441   0.331   6.082   6.854
   73        0.452   0.373   6.117   6.942
   74        0.465   0.384   6.156   7.005
   75        0.436   0.459   6.164   7.060
   76        0.456   0.459   6.207   7.122
   77        0.459   0.354   6.134   6.948
   78        0.464   0.386   6.174   7.024
   79        0.451   0.469   6.174   7.094
   80        0.464   0.400   6.154   7.018
--------------------------------------------------
tot         42.127  37.710 611.744 691.581
 


 magnetization (x)
 
# of ion       s       p       d       tot
------------------------------------------
    1       -0.021  -0.034   0.335   0.280
    2       -0.015  -0.054   0.320   0.251
    3       -0.018  -0.059   0.339   0.262
    4       -0.025  -0.061   0.423   0.337
    5       -0.025  -0.039   0.335   0.270
    6       -0.013  -0.030   0.328   0.284
    7       -0.025  -0.061   0.419   0.333
    8       -0.024  -0.039   0.315   0.253
    9       -0.014  -0.044   0.326   0.268
   10       -0.012  -0.040   0.384   0.332
   11       -0.028  -0.075   0.411   0.308
   12       -0.011  -0.044   0.275   0.219
   13       -0.020  -0.055   0.352   0.277
   14       -0.030  -0.063   0.397   0.304
   15       -0.016  -0.029   0.289   0.243
   16       -0.027  -0.027   0.292   0.237
   17       -0.017  -0.024   0.292   0.251
   18       -0.023  -0.034   0.316   0.259
   19       -0.035  -0.058   0.327   0.234
   20       -0.026  -0.057   0.337   0.254
   21       -0.020  -0.038   0.281   0.223
   22       -0.026  -0.035   0.339   0.279
   23       -0.020  -0.048   0.223   0.154
   24       -0.025  -0.034   0.285   0.226
   25       -0.023  -0.046   0.269   0.200
   26       -0.023  -0.022   0.285   0.240
   27       -0.023  -0.046   0.296   0.227
   28       -0.025  -0.039   0.337   0.272
   29       -0.022  -0.039   0.713   0.653
   30       -0.020  -0.044   0.716   0.651
   31       -0.011  -0.025   0.751   0.714
   32       -0.020  -0.040   0.733   0.672
   33       -0.018  -0.029   0.761   0.714
   34       -0.022  -0.042   0.621   0.557
   35       -0.019  -0.032   0.752   0.701
   36       -0.017  -0.022   0.734   0.696
   37       -0.024  -0.043   0.713   0.645
   38       -0.014  -0.032   0.718   0.672
   39       -0.013  -0.018   0.693   0.662
   40       -0.019  -0.047   0.657   0.591
   41       -0.018  -0.035   0.716   0.664
   42       -0.015  -0.035   0.713   0.663
   43       -0.024  -0.052   0.743   0.666
   44       -0.021  -0.036   0.754   0.697
   45       -0.012  -0.030   0.738   0.696
   46       -0.009  -0.032   0.588   0.547
   47       -0.018  -0.038   1.799   1.743
   48       -0.015  -0.042   1.796   1.739
   49       -0.014  -0.032   1.793   1.747
   50       -0.021  -0.047   1.722   1.655
   51       -0.009  -0.026   1.855   1.820
   52       -0.006  -0.021   1.856   1.829
   53       -0.012  -0.032   1.790   1.746
   54       -0.014  -0.039   1.746   1.692
   55       -0.001  -0.012   1.862   1.848
   56       -0.011  -0.032   1.787   1.743
   57       -0.009  -0.020   1.824   1.795
   58       -0.003  -0.018   1.795   1.774
   59       -0.003  -0.024   1.737   1.711
   60       -0.014  -0.038   1.766   1.714
   61       -0.005  -0.026   1.817   1.786
   62       -0.021  -0.048   1.784   1.715
   63       -0.006  -0.031   1.688   1.651
   64        0.010  -0.004   2.944   2.950
   65        0.007  -0.007   2.886   2.886
   66        0.001  -0.028   2.856   2.829
   67       -0.003  -0.019   2.841   2.819
   68       -0.006  -0.027   2.784   2.751
   69        0.000  -0.022   2.707   2.685
   70       -0.002  -0.029   2.668   2.637
   71        0.001  -0.025   2.702   2.678
   72        0.017   0.005   3.069   3.090
   73        0.024  -0.003   2.976   2.997
   74        0.007  -0.010   2.888   2.885
   75        0.002  -0.017   2.864   2.849
   76        0.001  -0.024   2.716   2.694
   77        0.008  -0.005   2.936   2.940
   78        0.010  -0.016   2.821   2.815
   79        0.007  -0.016   2.807   2.797
   80        0.007  -0.010   2.876   2.874
--------------------------------------------------
tot         -1.016  -2.655 100.695  97.025
 

 total amount of memory used by VASP MPI-rank0    90184. kBytes
=======================================================================

   base      :      30000. kBytes
   nonlr-proj:      16022. kBytes
   fftplans  :       7274. kBytes
   grid      :      22246. kBytes
   one-center:        155. kBytes
   wavefun   :      14487. kBytes
 
  
  
 General timing and accounting informations for this job:
 ========================================================
  
                  Total CPU time used (sec):     4174.330
                            User time (sec):     4168.861
                          System time (sec):        5.469
                         Elapsed time (sec):     4203.921
  
                   Maximum memory used (kb):      679380.
                   Average memory used (kb):           0.
  
                          Minor page faults:       954965
                          Major page faults:            0
                 Voluntary context switches:         4221
