ML                                      
           1
     8.956449   -5.157062   -0.027112
     0.004005   10.327304    0.016050
    -0.000711    0.004394   22.922172
   Pt   Pd   Ni   Co   Fe
  14  14  18  17  17
Direct configuration=     1
   0.43094070  0.03430324  0.46693038
   0.02387461  0.71585994  0.27892261
   0.77275893  0.44862021  0.28073898
   0.09852793  0.11889278  0.37497369
   0.68990123  0.54424933  0.46910703
   0.59945032  0.11258683  0.09512611
   0.35263027  0.61967717  0.37514795
   0.68329288  0.28217750  0.47175607
   0.52150720  0.94882741  0.28044431
   0.34532509  0.11793979  0.09755867
   0.85687334  0.11179707  0.37290192
   0.27376336  0.95267915  0.27968941
   0.25786660  0.18886710  0.27766430
   0.43308520  0.54023429  0.18551883
   0.85645801  0.11476580  0.09764292
   0.68387150  0.77896650  0.46825764
   0.60271536  0.61893779  0.09309344
   0.85373647  0.61749597  0.09365226
   0.94346606  0.29128068  0.18856136
   0.85379275  0.62653844  0.37698804
   0.59869381  0.86314691  0.37361890
   0.68027233  0.02133626  0.19162446
   0.27567890  0.70830600  0.27764383
   0.17928925  0.02815319  0.46700045
   0.52223847  0.71577460  0.27885495
   0.43263175  0.77909073  0.46458044
   0.68003911  0.28446761  0.18712492
   0.10646013  0.62025329  0.09463625
   0.68705953  0.53646168  0.18603402
   0.08830541  0.86907579  0.37636720
   0.34923926  0.61992437  0.09342856
   0.17723480  0.02423792  0.18844568
   0.11020298  0.37084113  0.09724450
   0.01285822  0.95680529  0.27939306
   0.60074293  0.36688802  0.37800194
   0.59428663  0.86008693  0.09650371
   0.85521094  0.35653599  0.37546428
   0.10277499  0.11661357  0.09857004
   0.59899205  0.36571741  0.09451409
   0.00459940  0.19451538  0.28098422
   0.42308875  0.02622379  0.18992356
   0.33873819  0.10692730  0.37482166
   0.10527568  0.61711704  0.37406003
   0.59886544  0.62221841  0.37727313
   0.59696796  0.10450288  0.37168298
   0.51724258  0.19485828  0.27953747
   0.93728380  0.28616587  0.46931456
   0.18412229  0.78730127  0.18613460
   0.42296582  0.78223978  0.18313809
   0.33602615  0.36663104  0.37620475
   0.42906234  0.28684219  0.18472919
   0.35301580  0.86331397  0.37432243
   0.18490986  0.54051297  0.18630090
   0.94348415  0.02971612  0.19212990
   0.34260468  0.36263768  0.09582860
   0.18536482  0.28060701  0.18357357
   0.93850557  0.03373852  0.46562929
   0.10174966  0.86795906  0.09925364
   0.77158651  0.19327919  0.28155670
   0.18756398  0.52725066  0.46625162
   0.18916151  0.78621786  0.46827685
   0.93667577  0.79194208  0.18513687
   0.25488605  0.44246005  0.28124331
   0.93254327  0.78251292  0.46901906
   0.35031154  0.86534583  0.09896825
   0.17961531  0.28185789  0.46885946
   0.84929762  0.86659107  0.37625350
   0.69486020  0.78599382  0.18482725
   0.76721670  0.95362291  0.28385027
   0.10724540  0.36445900  0.37828358
   0.76805237  0.71309208  0.27931980
   0.84802511  0.36237529  0.09120744
   0.68248423  0.03364992  0.46703457
   0.42161702  0.53533172  0.46475112
   0.93948423  0.54446000  0.18808937
   0.01698655  0.44823814  0.28018877
   0.85562560  0.86975952  0.09501159
   0.92530022  0.53247091  0.46975599
   0.51379389  0.44660652  0.28039889
   0.42171109  0.28269644  0.46800053
Direct configuration=     2
   0.43096100  0.03278774  0.46659512
   0.01416774  0.70716756  0.27954831
   0.76699382  0.44715544  0.28190596
   0.10639818  0.11821390  0.37458187
   0.68015792  0.53113140  0.47052296
   0.59945032  0.11258683  0.09512611
   0.34027581  0.60426985  0.37238779
   0.68752446  0.28381172  0.47074142
   0.52438621  0.96593382  0.28102194
   0.34532509  0.11793979  0.09755867
   0.84846067  0.11888494  0.37472782
   0.27162644  0.95505009  0.28118379
   0.26602592  0.20539922  0.27774372
   0.43308520  0.54023429  0.18551883
   0.85645801  0.11476580  0.09764292
   0.68812224  0.78913747  0.47059432
   0.60271536  0.61893779  0.09309344
   0.85373647  0.61749597  0.09365226
   0.94346606  0.29128068  0.18856136
   0.85385590  0.62177458  0.37469541
   0.60750678  0.86951346  0.37464746
   0.68027233  0.02133626  0.19162446
   0.26147827  0.69307883  0.27754927
   0.17766773  0.02817241  0.46950282
   0.52516784  0.69640377  0.27687109
   0.42855404  0.78238915  0.47042697
   0.68003911  0.28446761  0.18712492
   0.10646013  0.62025329  0.09463625
   0.68705953  0.53646168  0.18603402
   0.09340692  0.86802513  0.37608613
   0.34923926  0.61992437  0.09342856
   0.17723480  0.02423792  0.18844568
   0.11020298  0.37084113  0.09724450
   0.00731119  0.95157308  0.27961169
   0.59654451  0.36435065  0.37641316
   0.59428663  0.86008693  0.09650371
   0.85604836  0.35964928  0.37552776
   0.10277499  0.11661357  0.09857004
   0.59899205  0.36571741  0.09451409
   0.01024454  0.19768551  0.27984893
   0.42308875  0.02622379  0.18992356
   0.34536718  0.11157432  0.37422298
   0.10314967  0.61679376  0.37511247
   0.59842290  0.61553808  0.37459580
   0.59790929  0.11180903  0.37251661
   0.51983498  0.20076193  0.28104937
   0.93847107  0.28747288  0.46823536
   0.18412229  0.78730127  0.18613460
   0.42296582  0.78223978  0.18313809
   0.34334626  0.36628401  0.37567077
   0.42906234  0.28684219  0.18472919
   0.34590043  0.86660623  0.37486707
   0.18490986  0.54051297  0.18630090
   0.94348415  0.02971612  0.19212990
   0.34260468  0.36263768  0.09582860
   0.18536482  0.28060701  0.18357357
   0.93523950  0.03323175  0.46614929
   0.10174966  0.86795906  0.09925364
   0.77101368  0.19759626  0.28206627
   0.18154457  0.52591607  0.46585001
   0.18417004  0.78109183  0.46642777
   0.93667577  0.79194208  0.18513687
   0.25564346  0.44255251  0.28056430
   0.93778059  0.78648965  0.46970021
   0.35031154  0.86534583  0.09896825
   0.17906148  0.28364103  0.46917102
   0.85014212  0.86481186  0.37587024
   0.69486020  0.78599382  0.18482725
   0.77393525  0.95347540  0.28210973
   0.10366100  0.36942633  0.37732408
   0.76903996  0.71173291  0.27915064
   0.84802511  0.36237529  0.09120744
   0.68709188  0.03743513  0.46737535
   0.42276823  0.52875473  0.46588598
   0.93948423  0.54446000  0.18808937
   0.01996278  0.44761576  0.28166365
   0.85562560  0.86975952  0.09501159
   0.93313497  0.53170436  0.46915534
   0.51361585  0.44639831  0.28097340
   0.42456672  0.28544088  0.46682122
Direct configuration=     3
   0.43096241  0.03268251  0.46657184
   0.01349372  0.70656399  0.27959175
   0.76659351  0.44705373  0.28198699
   0.10694467  0.11816677  0.37455466
   0.67948138  0.53022054  0.47062127
   0.59945032  0.11258683  0.09512611
   0.33941796  0.60320002  0.37219613
   0.68781829  0.28392520  0.47067097
   0.52458611  0.96712163  0.28106204
   0.34532509  0.11793979  0.09755867
   0.84787652  0.11937710  0.37485461
   0.27147806  0.95521472  0.28128755
   0.26659248  0.20654715  0.27774924
   0.43308520  0.54023429  0.18551883
   0.85645801  0.11476580  0.09764292
   0.68841739  0.78984370  0.47075658
   0.60271536  0.61893779  0.09309344
   0.85373647  0.61749597  0.09365226
   0.94346606  0.29128068  0.18856136
   0.85386028  0.62144380  0.37453622
   0.60811872  0.86995553  0.37471888
   0.68027233  0.02133626  0.19162446
   0.26049223  0.69202150  0.27754271
   0.17755514  0.02817375  0.46967658
   0.52537124  0.69505873  0.27673333
   0.42827089  0.78261818  0.47083293
   0.68003911  0.28446761  0.18712492
   0.10646013  0.62025329  0.09463625
   0.68705953  0.53646168  0.18603402
   0.09376116  0.86795217  0.37606661
   0.34923926  0.61992437  0.09342856
   0.17723480  0.02423792  0.18844568
   0.11020298  0.37084113  0.09724450
   0.00692602  0.95120977  0.27962687
   0.59625299  0.36417447  0.37630284
   0.59428663  0.86008693  0.09650371
   0.85610651  0.35986546  0.37553216
   0.10277499  0.11661357  0.09857004
   0.59899205  0.36571741  0.09451409
   0.01063651  0.19790563  0.27977010
   0.42308875  0.02622379  0.18992356
   0.34582747  0.11189699  0.37418141
   0.10300205  0.61677132  0.37518555
   0.59839218  0.61507422  0.37440990
   0.59797465  0.11231634  0.37257449
   0.52001498  0.20117186  0.28115435
   0.93855351  0.28756363  0.46816042
   0.18412229  0.78730127  0.18613460
   0.42296582  0.78223978  0.18313809
   0.34385455  0.36625992  0.37563369
   0.42906234  0.28684219  0.18472919
   0.34540636  0.86683483  0.37490489
   0.18490986  0.54051297  0.18630090
   0.94348415  0.02971612  0.19212990
   0.34260468  0.36263768  0.09582860
   0.18536482  0.28060701  0.18357357
   0.93501272  0.03319656  0.46618539
   0.10174966  0.86795906  0.09925364
   0.77097391  0.19789603  0.28210166
   0.18112660  0.52582340  0.46582212
   0.18382345  0.78073590  0.46629938
   0.93667577  0.79194208  0.18513687
   0.25569605  0.44255893  0.28051716
   0.93814425  0.78676578  0.46974750
   0.35031154  0.86534583  0.09896825
   0.17902302  0.28376484  0.46919265
   0.85020076  0.86468832  0.37584363
   0.69486020  0.78599382  0.18482725
   0.77440176  0.95346516  0.28198888
   0.10341211  0.36977125  0.37725745
   0.76910853  0.71163854  0.27913889
   0.84802511  0.36237529  0.09120744
   0.68741182  0.03769797  0.46739902
   0.42284817  0.52829804  0.46596478
   0.93948423  0.54446000  0.18808937
   0.02016944  0.44757255  0.28176606
   0.85562560  0.86975952  0.09501159
   0.93367898  0.53165113  0.46911364
   0.51360349  0.44638385  0.28101329
   0.42476501  0.28563145  0.46673933
Direct configuration=     4
   0.43073856  0.03351443  0.46634864
   0.01146631  0.70442088  0.27918858
   0.76112151  0.44376447  0.28193254
   0.10416040  0.11831137  0.37463999
   0.67465045  0.52866988  0.47063942
   0.59945032  0.11258683  0.09512611
   0.34198824  0.60512699  0.37281076
   0.69076914  0.28358228  0.46966287
   0.52263346  0.96151244  0.28242428
   0.34532509  0.11793979  0.09755867
   0.85329620  0.12525275  0.37518355
   0.26488519  0.95372805  0.28165567
   0.27042563  0.21276888  0.27750538
   0.43308520  0.54023429  0.18551883
   0.85645801  0.11476580  0.09764292
   0.69062907  0.79137406  0.47254060
   0.60271536  0.61893779  0.09309344
   0.85373647  0.61749597  0.09365226
   0.94346606  0.29128068  0.18856136
   0.85195906  0.61778530  0.37571186
   0.60179948  0.86374328  0.37425091
   0.68027233  0.02133626  0.19162446
   0.26033554  0.69129542  0.27766064
   0.17790568  0.02948705  0.47185614
   0.52544874  0.69489360  0.27837736
   0.42468147  0.77890958  0.47273131
   0.68003911  0.28446761  0.18712492
   0.10646013  0.62025329  0.09463625
   0.68705953  0.53646168  0.18603402
   0.09830949  0.86672533  0.37610698
   0.34923926  0.61992437  0.09342856
   0.17723480  0.02423792  0.18844568
   0.11020298  0.37084113  0.09724450
   0.00588487  0.94934038  0.27986569
   0.59215883  0.36172936  0.37505608
   0.59428663  0.86008693  0.09650371
   0.85691012  0.36572295  0.37543097
   0.10277499  0.11661357  0.09857004
   0.59899205  0.36571741  0.09451409
   0.01431063  0.19969298  0.27961789
   0.42308875  0.02622379  0.18992356
   0.35257509  0.11712502  0.37424846
   0.10044294  0.61654487  0.37626131
   0.59797330  0.61090748  0.37315050
   0.59780163  0.11926976  0.37386578
   0.52052671  0.20763107  0.28248724
   0.94022919  0.28847180  0.46712581
   0.18412229  0.78730127  0.18613460
   0.42296582  0.78223978  0.18313809
   0.34979530  0.36446169  0.37527759
   0.42906234  0.28684219  0.18472919
   0.34091837  0.86662585  0.37559104
   0.18490986  0.54051297  0.18630090
   0.94348415  0.02971612  0.19212990
   0.34260468  0.36263768  0.09582860
   0.18536482  0.28060701  0.18357357
   0.93280288  0.03453270  0.46593846
   0.10174966  0.86795906  0.09925364
   0.77277531  0.20309289  0.28259737
   0.17690227  0.52557265  0.46524055
   0.17939133  0.77677477  0.46460104
   0.93667577  0.79194208  0.18513687
   0.25536464  0.44246296  0.27947724
   0.93912759  0.78607762  0.46970691
   0.35031154  0.86534583  0.09896825
   0.17909383  0.28509307  0.46891922
   0.85197357  0.86504243  0.37568651
   0.69486020  0.78599382  0.18482725
   0.77874985  0.95434562  0.28086407
   0.09773376  0.36844209  0.37661353
   0.77117769  0.70995379  0.27904949
   0.84802511  0.36237529  0.09120744
   0.69060892  0.04059217  0.46819188
   0.42389121  0.52569288  0.46619757
   0.93948423  0.54446000  0.18808937
   0.01984654  0.44484836  0.28292361
   0.85562560  0.86975952  0.09501159
   0.94002310  0.53186792  0.46823313
   0.51480271  0.44585292  0.28152749
   0.42654005  0.28640302  0.46552748
Direct configuration=     5
   0.43067574  0.03374788  0.46628600
   0.01089737  0.70381948  0.27907545
   0.75958595  0.44284143  0.28191726
   0.10337908  0.11835195  0.37466393
   0.67329479  0.52823473  0.47064451
   0.59945032  0.11258683  0.09512611
   0.34270952  0.60566774  0.37298323
   0.69159722  0.28348605  0.46937997
   0.52208550  0.95993838  0.28280656
   0.34532509  0.11793979  0.09755867
   0.85481708  0.12690159  0.37527585
   0.26303508  0.95331085  0.28175897
   0.27150130  0.21451484  0.27743695
   0.43308520  0.54023429  0.18551883
   0.85645801  0.11476580  0.09764292
   0.69124972  0.79180352  0.47304124
   0.60271536  0.61893779  0.09309344
   0.85373647  0.61749597  0.09365226
   0.94346606  0.29128068  0.18856136
   0.85142554  0.61675865  0.37604177
   0.60002615  0.86199998  0.37411958
   0.68027233  0.02133626  0.19162446
   0.26029157  0.69109166  0.27769374
   0.17800405  0.02985559  0.47246777
   0.52547049  0.69484726  0.27883870
   0.42367420  0.77786886  0.47326404
   0.68003911  0.28446761  0.18712492
   0.10646013  0.62025329  0.09463625
   0.68705953  0.53646168  0.18603402
   0.09958586  0.86638105  0.37611831
   0.34923926  0.61992437  0.09342856
   0.17723480  0.02423792  0.18844568
   0.11020298  0.37084113  0.09724450
   0.00559270  0.94881579  0.27993271
   0.59100992  0.36104321  0.37470621
   0.59428663  0.86008693  0.09650371
   0.85713563  0.36736670  0.37540257
   0.10277499  0.11661357  0.09857004
   0.59899205  0.36571741  0.09451409
   0.01534166  0.20019455  0.27957517
   0.42308875  0.02622379  0.18992356
   0.35446863  0.11859212  0.37426727
   0.09972479  0.61648132  0.37656320
   0.59785576  0.60973820  0.37279709
   0.59775308  0.12122105  0.37422814
   0.52067031  0.20944367  0.28286128
   0.94069942  0.28872665  0.46683547
   0.18412229  0.78730127  0.18613460
   0.42296582  0.78223978  0.18313809
   0.35146241  0.36395706  0.37517765
   0.42906234  0.28684219  0.18472919
   0.33965894  0.86656720  0.37578359
   0.18490986  0.54051297  0.18630090
   0.94348415  0.02971612  0.19212990
   0.34260468  0.36263768  0.09582860
   0.18536482  0.28060701  0.18357357
   0.93218276  0.03490765  0.46586916
   0.10174966  0.86795906  0.09925364
   0.77328082  0.20455125  0.28273647
   0.17571683  0.52550229  0.46507735
   0.17814758  0.77566318  0.46412445
   0.93667577  0.79194208  0.18513687
   0.25527164  0.44243603  0.27918542
   0.93940354  0.78588450  0.46969552
   0.35031154  0.86534583  0.09896825
   0.17911370  0.28546581  0.46884249
   0.85247106  0.86514180  0.37564242
   0.69486020  0.78599382  0.18482725
   0.77997002  0.95459269  0.28054843
   0.09614029  0.36806909  0.37643283
   0.77175835  0.70948101  0.27902440
   0.84802511  0.36237529  0.09120744
   0.69150610  0.04140435  0.46841437
   0.42418391  0.52496181  0.46626290
   0.93948423  0.54446000  0.18808937
   0.01975593  0.44408389  0.28324845
   0.85562560  0.86975952  0.09501159
   0.94180341  0.53192875  0.46798605
   0.51513923  0.44570393  0.28167179
   0.42703816  0.28661954  0.46518741
Direct configuration=     6
   0.43049337  0.03315631  0.46647333
   0.01010023  0.70115218  0.27914167
   0.76066466  0.44471995  0.28178256
   0.10435182  0.11847235  0.37505888
   0.67305383  0.52894783  0.47036375
   0.59945032  0.11258683  0.09512611
   0.34240927  0.60495488  0.37449993
   0.69290488  0.28510216  0.46886906
   0.51977431  0.95756936  0.28342549
   0.34532509  0.11793979  0.09755867
   0.85109625  0.12358966  0.37413274
   0.26354352  0.95450428  0.28164441
   0.27014921  0.21142959  0.27756260
   0.43308520  0.54023429  0.18551883
   0.85645801  0.11476580  0.09764292
   0.69134088  0.79098889  0.47379480
   0.60271536  0.61893779  0.09309344
   0.85373647  0.61749597  0.09365226
   0.94346606  0.29128068  0.18856136
   0.85035577  0.61627744  0.37713108
   0.60072319  0.86265407  0.37530388
   0.68027233  0.02133626  0.19162446
   0.26230790  0.69393422  0.27804303
   0.17799884  0.03166131  0.47324786
   0.52579768  0.69761492  0.27936052
   0.42186432  0.77475408  0.47365414
   0.68003911  0.28446761  0.18712492
   0.10646013  0.62025329  0.09463625
   0.68705953  0.53646168  0.18603402
   0.10112354  0.86630570  0.37649734
   0.34923926  0.61992437  0.09342856
   0.17723480  0.02423792  0.18844568
   0.11020298  0.37084113  0.09724450
   0.00717605  0.94913188  0.28013018
   0.58958032  0.36080674  0.37448535
   0.59428663  0.86008693  0.09650371
   0.85686271  0.37079073  0.37521332
   0.10277499  0.11661357  0.09857004
   0.59899205  0.36571741  0.09451409
   0.01694675  0.20080389  0.27960799
   0.42308875  0.02622379  0.18992356
   0.35590196  0.12107401  0.37429314
   0.09944420  0.61629949  0.37663149
   0.59813939  0.60791051  0.37256661
   0.59863709  0.12325949  0.37431705
   0.51740459  0.20652645  0.28327578
   0.94252409  0.28929888  0.46646898
   0.18412229  0.78730127  0.18613460
   0.42296582  0.78223978  0.18313809
   0.35412553  0.36376516  0.37519740
   0.42906234  0.28684219  0.18472919
   0.33842770  0.86601255  0.37622515
   0.18490986  0.54051297  0.18630090
   0.94348415  0.02971612  0.19212990
   0.34260468  0.36263768  0.09582860
   0.18536482  0.28060701  0.18357357
   0.93130516  0.03650873  0.46565630
   0.10174966  0.86795906  0.09925364
   0.77363868  0.20575367  0.28298639
   0.17400385  0.52599594  0.46442278
   0.17646470  0.77475142  0.46334689
   0.93667577  0.79194208  0.18513687
   0.25500818  0.44445852  0.27886936
   0.93901196  0.78425786  0.46933118
   0.35031154  0.86534583  0.09896825
   0.17988942  0.28616953  0.46831963
   0.85251917  0.86577624  0.37582163
   0.69486020  0.78599382  0.18482725
   0.78080452  0.95529937  0.28050434
   0.09700703  0.36971297  0.37610803
   0.77186623  0.70814425  0.27901624
   0.84802511  0.36237529  0.09120744
   0.69287233  0.04180201  0.46862056
   0.42378725  0.52438802  0.46598903
   0.93948423  0.54446000  0.18808937
   0.01804389  0.44228277  0.28366870
   0.85562560  0.86975952  0.09501159
   0.94407176  0.53162839  0.46755806
   0.51692640  0.44756594  0.28166653
   0.42716060  0.28547047  0.46439407
Direct configuration=     7
   0.43043628  0.03297112  0.46653198
   0.00985069  0.70031718  0.27916240
   0.76100235  0.44530802  0.28174039
   0.10465634  0.11851004  0.37518251
   0.67297840  0.52917107  0.47027585
   0.59945032  0.11258683  0.09512611
   0.34231528  0.60473172  0.37497473
   0.69331423  0.28560808  0.46870912
   0.51905079  0.95682774  0.28361924
   0.34532509  0.11793979  0.09755867
   0.84993146  0.12255286  0.37377489
   0.26370269  0.95487787  0.28160854
   0.26972593  0.21046375  0.27760193
   0.43308520  0.54023429  0.18551883
   0.85645801  0.11476580  0.09764292
   0.69136942  0.79073388  0.47403070
   0.60271536  0.61893779  0.09309344
   0.85373647  0.61749597  0.09365226
   0.94346606  0.29128068  0.18856136
   0.85002088  0.61612680  0.37747209
   0.60094140  0.86285884  0.37567462
   0.68027233  0.02133626  0.19162446
   0.26293911  0.69482408  0.27815238
   0.17799722  0.03222659  0.47349206
   0.52590011  0.69848133  0.27952387
   0.42129775  0.77377900  0.47377626
   0.68003911  0.28446761  0.18712492
   0.10646013  0.62025329  0.09463625
   0.68705953  0.53646168  0.18603402
   0.10160491  0.86628211  0.37661599
   0.34923926  0.61992437  0.09342856
   0.17723480  0.02423792  0.18844568
   0.11020298  0.37084113  0.09724450
   0.00767172  0.94923083  0.28019200
   0.58913279  0.36073272  0.37441621
   0.59428663  0.86008693  0.09650371
   0.85677727  0.37186262  0.37515408
   0.10277499  0.11661357  0.09857004
   0.59899205  0.36571741  0.09451409
   0.01744921  0.20099464  0.27961827
   0.42308875  0.02622379  0.18992356
   0.35635066  0.12185096  0.37430124
   0.09935636  0.61624256  0.37665287
   0.59822817  0.60733835  0.37249446
   0.59891382  0.12389762  0.37434488
   0.51638227  0.20561322  0.28340554
   0.94309531  0.28947801  0.46635425
   0.18412229  0.78730127  0.18613460
   0.42296582  0.78223978  0.18313809
   0.35495921  0.36370508  0.37520358
   0.42906234  0.28684219  0.18472919
   0.33804226  0.86583892  0.37636338
   0.18490986  0.54051297  0.18630090
   0.94348415  0.02971612  0.19212990
   0.34260468  0.36263768  0.09582860
   0.18536482  0.28060701  0.18357357
   0.93103044  0.03700994  0.46558966
   0.10174966  0.86795906  0.09925364
   0.77375070  0.20613008  0.28306463
   0.17346761  0.52615048  0.46421787
   0.17593788  0.77446599  0.46310347
   0.93667577  0.79194208  0.18513687
   0.25492570  0.44509165  0.27877042
   0.93888938  0.78374864  0.46921712
   0.35031154  0.86534583  0.09896825
   0.18013225  0.28638983  0.46815595
   0.85253423  0.86597485  0.37587773
   0.69486020  0.78599382  0.18482725
   0.78106576  0.95552060  0.28049053
   0.09727836  0.37022758  0.37600636
   0.77190000  0.70772577  0.27901369
   0.84802511  0.36237529  0.09120744
   0.69330003  0.04192650  0.46868511
   0.42366308  0.52420839  0.46590330
   0.93948423  0.54446000  0.18808937
   0.01750793  0.44171894  0.28380026
   0.85562560  0.86975952  0.09501159
   0.94478186  0.53153436  0.46742408
   0.51748587  0.44814884  0.28166488
   0.42719893  0.28511075  0.46414572
Direct configuration=     8
   0.43058190  0.03203607  0.46669481
   0.01191485  0.70131498  0.27966759
   0.75972658  0.44428579  0.28167606
   0.10467316  0.11889042  0.37565702
   0.67303614  0.52886760  0.47032958
   0.59945032  0.11258683  0.09512611
   0.34234644  0.60437973  0.37521409
   0.69383686  0.28659285  0.46844449
   0.51999953  0.95815208  0.28387194
   0.34532509  0.11793979  0.09755867
   0.84956768  0.12311921  0.37298346
   0.26336212  0.95323722  0.28164010
   0.26918947  0.21133625  0.27761796
   0.43308520  0.54023429  0.18551883
   0.85645801  0.11476580  0.09764292
   0.69129256  0.79045823  0.47462760
   0.60271536  0.61893779  0.09309344
   0.85373647  0.61749597  0.09365226
   0.94346606  0.29128068  0.18856136
   0.85033636  0.61749544  0.37759159
   0.60105242  0.86287872  0.37696981
   0.68027233  0.02133626  0.19162446
   0.26295662  0.69526078  0.27867088
   0.17765895  0.03317600  0.47393021
   0.52634922  0.69968849  0.27961277
   0.42038896  0.77252309  0.47411904
   0.68003911  0.28446761  0.18712492
   0.10646013  0.62025329  0.09463625
   0.68705953  0.53646168  0.18603402
   0.10152066  0.86643440  0.37679856
   0.34923926  0.61992437  0.09342856
   0.17723480  0.02423792  0.18844568
   0.11020298  0.37084113  0.09724450
   0.00845628  0.94891276  0.28032617
   0.58977654  0.36139375  0.37425110
   0.59428663  0.86008693  0.09650371
   0.85645496  0.37172541  0.37502145
   0.10277499  0.11661357  0.09857004
   0.59899205  0.36571741  0.09451409
   0.01810849  0.20121303  0.27973707
   0.42308875  0.02622379  0.18992356
   0.35592936  0.12195665  0.37452870
   0.09980239  0.61642792  0.37615865
   0.59849088  0.60726861  0.37239259
   0.59953065  0.12427888  0.37413849
   0.51579220  0.20386087  0.28331649
   0.94412352  0.28903760  0.46568311
   0.18412229  0.78730127  0.18613460
   0.42296582  0.78223978  0.18313809
   0.35571582  0.36412032  0.37509254
   0.42906234  0.28684219  0.18472919
   0.33829083  0.86571756  0.37660453
   0.18490986  0.54051297  0.18630090
   0.94348415  0.02971612  0.19212990
   0.34260468  0.36263768  0.09582860
   0.18536482  0.28060701  0.18357357
   0.93050585  0.03853944  0.46540025
   0.10174966  0.86795906  0.09925364
   0.77291143  0.20586824  0.28288580
   0.17234421  0.52651299  0.46404253
   0.17571510  0.77505607  0.46292636
   0.93667577  0.79194208  0.18513687
   0.25514020  0.44599836  0.27876811
   0.93900793  0.78304397  0.46900714
   0.35031154  0.86534583  0.09896825
   0.18089340  0.28695316  0.46764417
   0.85268451  0.86645002  0.37600374
   0.69486020  0.78599382  0.18482725
   0.78123254  0.95568281  0.28047013
   0.09696231  0.36948471  0.37573143
   0.77156169  0.70760762  0.27909606
   0.84802511  0.36237529  0.09120744
   0.69387431  0.04213983  0.46880612
   0.42319453  0.52348080  0.46580680
   0.93948423  0.54446000  0.18808937
   0.01686748  0.44128546  0.28386135
   0.85562560  0.86975952  0.09501159
   0.94514538  0.53095944  0.46734683
   0.51730581  0.44899856  0.28130108
   0.42743877  0.28405057  0.46373797
Direct configuration=     9
   0.43066369  0.03151083  0.46678627
   0.01307434  0.70187547  0.27995137
   0.75900995  0.44371158  0.28163992
   0.10468261  0.11910408  0.37592357
   0.67306858  0.52869713  0.47035976
   0.59945032  0.11258683  0.09512611
   0.34236395  0.60418201  0.37534855
   0.69413043  0.28714601  0.46829585
   0.52053246  0.95889600  0.28401390
   0.34532509  0.11793979  0.09755867
   0.84936334  0.12343734  0.37253890
   0.26317081  0.95231563  0.28165783
   0.26888813  0.21182635  0.27762696
   0.43308520  0.54023429  0.18551883
   0.85645801  0.11476580  0.09764292
   0.69124939  0.79030339  0.47496290
   0.60271536  0.61893779  0.09309344
   0.85373647  0.61749597  0.09365226
   0.94346606  0.29128068  0.18856136
   0.85051358  0.61826424  0.37765872
   0.60111479  0.86288988  0.37769735
   0.68027233  0.02133626  0.19162446
   0.26296645  0.69550608  0.27896214
   0.17746893  0.03370930  0.47417632
   0.52660149  0.70036659  0.27966271
   0.41987847  0.77181761  0.47431159
   0.68003911  0.28446761  0.18712492
   0.10646013  0.62025329  0.09463625
   0.68705953  0.53646168  0.18603402
   0.10147333  0.86651994  0.37690111
   0.34923926  0.61992437  0.09342856
   0.17723480  0.02423792  0.18844568
   0.11020298  0.37084113  0.09724450
   0.00889699  0.94873409  0.28040153
   0.59013815  0.36176507  0.37415836
   0.59428663  0.86008693  0.09650371
   0.85627391  0.37164833  0.37494695
   0.10277499  0.11661357  0.09857004
   0.59899205  0.36571741  0.09451409
   0.01847883  0.20133570  0.27980380
   0.42308875  0.02622379  0.18992356
   0.35569271  0.12201602  0.37465647
   0.10005293  0.61653204  0.37588104
   0.59863845  0.60722943  0.37233536
   0.59987713  0.12449305  0.37402255
   0.51546075  0.20287653  0.28326647
   0.94470110  0.28879021  0.46530612
   0.18412229  0.78730127  0.18613460
   0.42296582  0.78223978  0.18313809
   0.35614082  0.36435358  0.37503016
   0.42906234  0.28684219  0.18472919
   0.33843046  0.86564939  0.37673998
   0.18490986  0.54051297  0.18630090
   0.94348415  0.02971612  0.19212990
   0.34260468  0.36263768  0.09582860
   0.18536482  0.28060701  0.18357357
   0.93021117  0.03939860  0.46529386
   0.10174966  0.86795906  0.09925364
   0.77243998  0.20572115  0.28278535
   0.17171317  0.52671662  0.46394403
   0.17558996  0.77538753  0.46282688
   0.93667577  0.79194208  0.18513687
   0.25526069  0.44650768  0.27876681
   0.93907453  0.78264814  0.46888920
   0.35031154  0.86534583  0.09896825
   0.18132096  0.28726960  0.46735669
   0.85276893  0.86671693  0.37607452
   0.69486020  0.78599382  0.18482725
   0.78132623  0.95577394  0.28045867
   0.09678478  0.36906742  0.37557699
   0.77137165  0.70754125  0.27914233
   0.84802511  0.36237529  0.09120744
   0.69419689  0.04225966  0.46887410
   0.42293134  0.52307210  0.46575259
   0.93948423  0.54446000  0.18808937
   0.01650771  0.44104197  0.28389567
   0.85562560  0.86975952  0.09501159
   0.94534958  0.53063650  0.46730344
   0.51720467  0.44947587  0.28109672
   0.42757349  0.28345504  0.46350893
Direct configuration=    10
   0.43088344  0.03091200  0.46691621
   0.01100602  0.70024466  0.28027769
   0.75877351  0.44407492  0.28175015
   0.10444278  0.11929082  0.37613630
   0.67294058  0.52844438  0.47044068
   0.59945032  0.11258683  0.09512611
   0.34264628  0.60404156  0.37513455
   0.69445179  0.28683380  0.46805610
   0.52229061  0.95971166  0.28454097
   0.34532509  0.11793979  0.09755867
   0.84994881  0.12435759  0.37192674
   0.26430949  0.95395869  0.28175612
   0.26919968  0.21206426  0.27775079
   0.43308520  0.54023429  0.18551883
   0.85645801  0.11476580  0.09764292
   0.69169190  0.79029214  0.47588883
   0.60271536  0.61893779  0.09309344
   0.85373647  0.61749597  0.09365226
   0.94346606  0.29128068  0.18856136
   0.85117955  0.61931833  0.37723878
   0.60070106  0.86272429  0.37859366
   0.68027233  0.02133626  0.19162446
   0.26372000  0.69485547  0.27926153
   0.17726865  0.03423956  0.47470456
   0.52696160  0.70165053  0.27978291
   0.41882693  0.77065339  0.47496222
   0.68003911  0.28446761  0.18712492
   0.10646013  0.62025329  0.09463625
   0.68705953  0.53646168  0.18603402
   0.10133893  0.86739952  0.37705460
   0.34923926  0.61992437  0.09342856
   0.17723480  0.02423792  0.18844568
   0.11020298  0.37084113  0.09724450
   0.00927896  0.94837394  0.28054112
   0.59113516  0.36242868  0.37383590
   0.59428663  0.86008693  0.09650371
   0.85604545  0.37135207  0.37474486
   0.10277499  0.11661357  0.09857004
   0.59899205  0.36571741  0.09451409
   0.01855145  0.20156102  0.27985235
   0.42308875  0.02622379  0.18992356
   0.35492640  0.12129216  0.37484632
   0.10040952  0.61653067  0.37541292
   0.59895646  0.60785789  0.37226336
   0.60010437  0.12464862  0.37401756
   0.51500690  0.20214663  0.28306368
   0.94529501  0.28790364  0.46437372
   0.18412229  0.78730127  0.18613460
   0.42296582  0.78223978  0.18313809
   0.35657809  0.36494439  0.37482654
   0.42906234  0.28684219  0.18472919
   0.33921824  0.86572059  0.37697048
   0.18490986  0.54051297  0.18630090
   0.94348415  0.02971612  0.19212990
   0.34260468  0.36263768  0.09582860
   0.18536482  0.28060701  0.18357357