 vasp.5.4.4.18Apr17-6-g9f103f2a35 (build Jun 19 2019 11:58:18) complex          
  
 executed on             LinuxIFC date 2022.03.01  16:22:44
 running on   64 total cores
 distrk:  each k-point on   64 cores,    1 groups
 distr:  one band on NCORES_PER_BAND=  16 cores,    4 groups


--------------------------------------------------------------------------------------------------------


 INCAR:
 POTCAR:    PAW_PBE Pt 04Feb2005                  
 POTCAR:    PAW_PBE Pd 04Jan2005                  
 POTCAR:    PAW_PBE Ni 02Aug2007                  
 POTCAR:    PAW_PBE Co 02Aug2007                  
 POTCAR:    PAW_PBE Fe 06Sep2000                  
 POTCAR:    PAW_PBE Pt 04Feb2005                  
   VRHFIN =Pt: s1d9                                                             
   LEXCH  = PE                                                                  
   EATOM  =   729.1176 eV,   53.5886 Ry                                         
                                                                                
   TITEL  = PAW_PBE Pt 04Feb2005                                                
   LULTRA =        F    use ultrasoft PP ?                                      
   IUNSCR =        1    unscreen: 0-lin 1-nonlin 2-no                           
   RPACOR =    2.330    partial core radius                                     
   POMASS =  195.080; ZVAL   =   10.000    mass and valenz                      
   RCORE  =    2.600    outmost cutoff radius                                   
   RWIGS  =    2.750; RWIGS  =    1.455    wigner-seitz radius (au A)           
   ENMAX  =  230.283; ENMIN  =  172.712 eV                                      
   ICORE  =        3    local potential                                         
   LCOR   =        T    correct aug charges                                     
   LPAW   =        T    paw PP                                                  
   EAUG   =  358.966                                                            
   DEXC   =    0.000                                                            
   RMAX   =    2.658    core radius for proj-oper                               
   RAUG   =    1.300    factor for augmentation sphere                          
   RDEP   =    2.761    radius for radial grids                                 
   RDEPT  =    2.203    core radius for aug-charge                              
                                                                                
   Atomic configuration                                                         
   16 entries                                                                   
     n  l   j            E        occ.                                          
     1  0  0.50    -78401.1885   2.0000                                         
     2  0  0.50    -13770.7750   2.0000                                         
     2  1  1.50    -11931.0468   6.0000                                         
     3  0  0.50     -3234.7234   2.0000                                         
     3  1  1.50     -2699.2216   6.0000                                         
     3  2  2.50     -2119.5714  10.0000                                         
     4  0  0.50      -695.1528   2.0000                                         
     4  1  1.50      -519.6034   6.0000                                         
     4  2  2.50      -306.6786  10.0000                                         
     4  3  3.50       -70.1041  14.0000                                         
     5  0  0.50      -101.7747   2.0000                                         
     5  1  1.50       -55.9873   6.0000                                         
     5  2  2.50        -6.1423   9.0000                                         
     6  0  0.50        -5.6573   1.0000                                         
     6  1  1.50        -6.8029   0.0000                                         
     5  3  2.50        -1.3606   0.0000                                         
   Description                                                                  
     l       E           TYP  RCUT    TYP  RCUT                                 
     2     -6.1423404     23  2.500                                             
     2     -7.5029230     23  2.500                                             
     0     -5.6573207     23  2.500                                             
     0      0.7416693     23  2.500                                             
     1     -2.7211652     23  2.600                                             
     1     20.4087390     23  2.600                                             
     3     -1.3605826     23  2.500                                             
  local pseudopotential read in
  partial core-charges read in
  partial kinetic energy density read in
  atomic valenz-charges read in
  non local Contribution for L=           2  read in
    real space projection operators read in
  non local Contribution for L=           2  read in
    real space projection operators read in
  non local Contribution for L=           0  read in
    real space projection operators read in
  non local Contribution for L=           0  read in
    real space projection operators read in
  non local Contribution for L=           1  read in
    real space projection operators read in
  non local Contribution for L=           1  read in
    real space projection operators read in
    PAW grid and wavefunctions read in
 
   number of l-projection  operators is LMAX  =           6
   number of lm-projection operators is LMMAX =          18
 
 POTCAR:    PAW_PBE Pd 04Jan2005                  
   VRHFIN =Pd : s1 d9                                                           
   LEXCH  = PE                                                                  
   EATOM  =   809.7530 eV,   59.5152 Ry                                         
                                                                                
   TITEL  = PAW_PBE Pd 04Jan2005                                                
   LULTRA =        F    use ultrasoft PP ?                                      
   IUNSCR =        1    unscreen: 0-lin 1-nonlin 2-no                           
   RPACOR =    2.000    partial core radius                                     
   POMASS =  106.420; ZVAL   =   10.000    mass and valenz                      
   RCORE  =    2.600    outmost cutoff radius                                   
   RWIGS  =    2.710; RWIGS  =    1.434    wigner-seitz radius (au A)           
   ENMAX  =  250.925; ENMIN  =  188.194 eV                                      
   ICORE  =        3    local potential                                         
   LCOR   =        T    correct aug charges                                     
   LPAW   =        T    paw PP                                                  
   EAUG   =  416.230                                                            
   DEXC   =    0.000                                                            
   RMAX   =    2.653    core radius for proj-oper                               
   RAUG   =    1.300    factor for augmentation sphere                          
   RDEP   =    2.734    radius for radial grids                                 
   RDEPT  =    2.103    core radius for aug-charge                              
                                                                                
   Atomic configuration                                                         
   12 entries                                                                   
     n  l   j            E        occ.                                          
     1  0  0.50    -24164.6631   2.0000                                         
     2  0  0.50     -3530.9218   2.0000                                         
     2  1  1.50     -3165.6822   6.0000                                         
     3  0  0.50      -639.4577   2.0000                                         
     3  1  1.50      -519.4532   6.0000                                         
     3  2  2.50      -328.9757  10.0000                                         
     4  0  0.50       -88.7014   2.0000                                         
     4  1  1.50       -54.4540   6.0000                                         
     4  2  2.50        -6.6878   9.0000                                         
     5  0  0.50        -4.3543   1.0000                                         
     5  1  0.50        -1.3606   0.0000                                         
     4  3  2.50        -1.3606   0.0000                                         
   Description                                                                  
     l       E           TYP  RCUT    TYP  RCUT                                 
     2     -6.6878251     23  2.400                                             
     2     -8.0484077     23  2.400                                             
     0     -4.3542939     23  2.400                                             
     0      4.3406793     23  2.400                                             
     1     -4.0817478     23  2.600                                             
     1     15.8380318     23  2.600                                             
     3     -4.0817478     23  2.400                                             
  local pseudopotential read in
  partial core-charges read in
  partial kinetic energy density read in
  atomic valenz-charges read in
  non local Contribution for L=           2  read in
    real space projection operators read in
  non local Contribution for L=           2  read in
    real space projection operators read in
  non local Contribution for L=           0  read in
    real space projection operators read in
  non local Contribution for L=           0  read in
    real space projection operators read in
  non local Contribution for L=           1  read in
    real space projection operators read in
  non local Contribution for L=           1  read in
    real space projection operators read in
    PAW grid and wavefunctions read in
 
   number of l-projection  operators is LMAX  =           6
   number of lm-projection operators is LMMAX =          18
 
 POTCAR:    PAW_PBE Ni 02Aug2007                  
   VRHFIN =Ni:                                                                  
   LEXCH  = PE                                                                  
   EATOM  =  1077.6739 eV,   79.2068 Ry                                         
                                                                                
   TITEL  = PAW_PBE Ni 02Aug2007                                                
   LULTRA =        F    use ultrasoft PP ?                                      
   IUNSCR =        1    unscreen: 0-lin 1-nonlin 2-no                           
   RPACOR =    2.000    partial core radius                                     
   POMASS =   58.690; ZVAL   =   10.000    mass and valenz                      
   RCORE  =    2.300    outmost cutoff radius                                   
   RWIGS  =    2.430; RWIGS  =    1.286    wigner-seitz radius (au A)           
   ENMAX  =  269.532; ENMIN  =  202.149 eV                                      
   RCLOC  =    1.201    cutoff for local pot                                    
   LCOR   =        T    correct aug charges                                     
   LPAW   =        T    paw PP                                                  
   EAUG   =  544.565                                                            
   DEXC   =    0.000                                                            
   RMAX   =    2.357    core radius for proj-oper                               
   RAUG   =    1.300    factor for augmentation sphere                          
   RDEP   =    2.390    radius for radial grids                                 
   RDEPT  =    1.838    core radius for aug-charge                              
                                                                                
   Atomic configuration                                                         
    9 entries                                                                   
     n  l   j            E        occ.                                          
     1  0  0.50     -8206.4253   2.0000                                         
     2  0  0.50      -976.1748   2.0000                                         
     2  1  1.50      -839.0571   6.0000                                         
     3  0  0.50      -105.9991   2.0000                                         
     3  1  1.50       -66.4603   6.0000                                         
     3  2  2.50        -4.6458   9.0000                                         
     4  0  0.50        -4.4926   1.0000                                         
     4  1  1.50        -4.0817   0.0000                                         
     4  3  2.50        -1.3606   0.0000                                         
   Description                                                                  
     l       E           TYP  RCUT    TYP  RCUT                                 
     2     -4.6457903     23  2.300                                             
     2     -6.0063729     23  2.300                                             
     0     -4.4925590     23  2.300                                             
     0      5.0102601     23  2.300                                             
     1     -2.7211652     23  2.300                                             
     1     16.5183231     23  2.300                                             
  local pseudopotential read in
  partial core-charges read in
  partial kinetic energy density read in
  atomic valenz-charges read in
  non local Contribution for L=           2  read in
    real space projection operators read in
  non local Contribution for L=           2  read in
    real space projection operators read in
  non local Contribution for L=           0  read in
    real space projection operators read in
  non local Contribution for L=           0  read in
    real space projection operators read in
  non local Contribution for L=           1  read in
    real space projection operators read in
  non local Contribution for L=           1  read in
    real space projection operators read in
    PAW grid and wavefunctions read in
 
   number of l-projection  operators is LMAX  =           6
   number of lm-projection operators is LMMAX =          18
 
 POTCAR:    PAW_PBE Co 02Aug2007                  
   VRHFIN =Co: d8 s1                                                            
   LEXCH  = PE                                                                  
   EATOM  =   813.3670 eV,   59.7808 Ry                                         
                                                                                
   TITEL  = PAW_PBE Co 02Aug2007                                                
   LULTRA =        F    use ultrasoft PP ?                                      
   IUNSCR =        1    unscreen: 0-lin 1-nonlin 2-no                           
   RPACOR =    2.000    partial core radius                                     
   POMASS =   58.933; ZVAL   =    9.000    mass and valenz                      
   RCORE  =    2.300    outmost cutoff radius                                   
   RWIGS  =    2.460; RWIGS  =    1.302    wigner-seitz radius (au A)           
   ENMAX  =  267.968; ENMIN  =  200.976 eV                                      
   RCLOC  =    1.203    cutoff for local pot                                    
   LCOR   =        T    correct aug charges                                     
   LPAW   =        T    paw PP                                                  
   EAUG   =  477.818                                                            
   DEXC   =    0.000                                                            
   RMAX   =    2.360    core radius for proj-oper                               
   RAUG   =    1.300    factor for augmentation sphere                          
   RDEP   =    2.393    radius for radial grids                                 
   RDEPT  =    1.864    core radius for aug-charge                              
                                                                                
   Atomic configuration                                                         
    9 entries                                                                   
     n  l   j            E        occ.                                          
     1  0  0.50     -7587.6674   2.0000                                         
     2  0  0.50      -893.6084   2.0000                                         
     2  1  1.50      -764.5805   6.0000                                         
     3  0  0.50       -97.5973   2.0000                                         
     3  1  1.50       -60.9648   6.0000                                         
     3  2  2.50        -4.2382   8.0000                                         
     4  0  0.50        -4.3746   1.0000                                         
     4  1  1.50        -4.0817   0.0000                                         
     4  3  2.50        -1.3606   0.0000                                         
   Description                                                                  
     l       E           TYP  RCUT    TYP  RCUT                                 
     2     -4.2382362     23  2.300                                             
     2     -5.5988188     23  2.300                                             
     0     -4.3745797     23  2.300                                             
     0      5.7660125     23  2.300                                             
     1     -2.7211652     23  2.300                                             
     1     16.9860234     23  2.300                                             
  local pseudopotential read in
  partial core-charges read in
  partial kinetic energy density read in
  atomic valenz-charges read in
  non local Contribution for L=           2  read in
    real space projection operators read in
  non local Contribution for L=           2  read in
    real space projection operators read in
  non local Contribution for L=           0  read in
    real space projection operators read in
  non local Contribution for L=           0  read in
    real space projection operators read in
  non local Contribution for L=           1  read in
    real space projection operators read in
  non local Contribution for L=           1  read in
    real space projection operators read in
    PAW grid and wavefunctions read in
 
   number of l-projection  operators is LMAX  =           6
   number of lm-projection operators is LMMAX =          18
 
 POTCAR:    PAW_PBE Fe 06Sep2000                  
   VRHFIN =Fe:  d7 s1                                                           
   LEXCH  = PE                                                                  
   EATOM  =   594.3153 eV,   43.6809 Ry                                         
                                                                                
   TITEL  = PAW_PBE Fe 06Sep2000                                                
   LULTRA =        F    use ultrasoft PP ?                                      
   IUNSCR =        1    unscreen: 0-lin 1-nonlin 2-no                           
   RPACOR =    2.000    partial core radius                                     
   POMASS =   55.847; ZVAL   =    8.000    mass and valenz                      
   RCORE  =    2.300    outmost cutoff radius                                   
   RWIGS  =    2.460; RWIGS  =    1.302    wigner-seitz radius (au A)           
   ENMAX  =  267.882; ENMIN  =  200.911 eV                                      
   RCLOC  =    1.701    cutoff for local pot                                    
   LCOR   =        T    correct aug charges                                     
   LPAW   =        T    paw PP                                                  
   EAUG   =  511.368                                                            
   DEXC   =    0.000                                                            
   RMAX   =    2.356    core radius for proj-oper                               
   RAUG   =    1.300    factor for augmentation sphere                          
   RDEP   =    2.442    radius for radial grids                                 
   RDEPT  =    1.890    core radius for aug-charge                              
                                                                                
   Atomic configuration                                                         
    9 entries                                                                   
     n  l   j            E        occ.                                          
     1  0  0.50     -6993.8440   2.0000                                         
     2  0  0.50      -814.6047   2.0000                                         
     2  1  1.50      -693.3689   6.0000                                         
     3  0  0.50       -89.4732   2.0000                                         
     3  1  1.50       -55.6373   6.0000                                         
     3  2  2.50        -3.8151   7.0000                                         
     4  0  0.50        -4.2551   1.0000                                         
     4  1  1.50        -3.4015   0.0000                                         
     4  3  2.50        -1.3606   0.0000                                         
   Description                                                                  
     l       E           TYP  RCUT    TYP  RCUT                                 
     2     -3.8151135     23  2.300                                             
     2     -5.1756961     23  2.300                                             
     0     -4.2550963     23  2.300                                             
     0      7.2035603     23  2.300                                             
     1     -2.7211652     23  2.300                                             
     1     18.4316424     23  2.300                                             
  local pseudopotential read in
  partial core-charges read in
  partial kinetic energy density read in
  atomic valenz-charges read in
  non local Contribution for L=           2  read in
    real space projection operators read in
  non local Contribution for L=           2  read in
    real space projection operators read in
  non local Contribution for L=           0  read in
    real space projection operators read in
  non local Contribution for L=           0  read in
    real space projection operators read in
  non local Contribution for L=           1  read in
    real space projection operators read in
  non local Contribution for L=           1  read in
    real space projection operators read in
    PAW grid and wavefunctions read in
 
   number of l-projection  operators is LMAX  =           6
   number of lm-projection operators is LMMAX =          18
 
 Optimization of the real space projectors (new method)

 maximal supplied QI-value         = 14.36
 optimisation between [QCUT,QGAM] = [ 11.35, 22.84] = [ 36.05,146.02] Ry 
 Optimized for a Real-space Cutoff    1.52 Angstroem

   l    n(q)    QCUT    max X(q) W(low)/X(q) W(high)/X(q)  e(spline) 
   2      9    11.346    66.195    0.18E-03    0.31E-04    0.24E-06
   2      9    11.346    64.643    0.18E-03    0.31E-04    0.25E-06
   0     10    11.346    95.520    0.43E-04    0.40E-05    0.18E-06
   0     10    11.346    63.403    0.42E-04    0.39E-05    0.17E-06
   1     10    11.346    19.961    0.83E-04    0.43E-04    0.12E-06
   1     10    11.346    13.289    0.69E-04    0.37E-04    0.98E-07
 Optimization of the real space projectors (new method)

 maximal supplied QI-value         = 14.36
 optimisation between [QCUT,QGAM] = [ 11.35, 22.84] = [ 36.05,146.02] Ry 
 Optimized for a Real-space Cutoff    1.47 Angstroem

   l    n(q)    QCUT    max X(q) W(low)/X(q) W(high)/X(q)  e(spline) 
   2      9    11.346    59.108    0.74E-04    0.81E-04    0.26E-06
   2      9    11.346    58.101    0.74E-04    0.83E-04    0.27E-06
   0     10    11.346   102.235    0.26E-04    0.31E-04    0.16E-06
   0     10    11.346    58.388    0.23E-04    0.29E-04    0.15E-06
   1     10    11.346    22.191    0.23E-03    0.26E-03    0.14E-06
   1     10    11.346    15.590    0.19E-03    0.22E-03    0.12E-06
 Optimization of the real space projectors (new method)

 maximal supplied QI-value         = 16.25
 optimisation between [QCUT,QGAM] = [ 11.38, 22.75] = [ 36.24,144.96] Ry 
 Optimized for a Real-space Cutoff    1.47 Angstroem

   l    n(q)    QCUT    max X(q) W(low)/X(q) W(high)/X(q)  e(spline) 
   2      9    11.376    60.317    0.17E-03    0.16E-04    0.16E-06
   2      9    11.376    55.921    0.17E-03    0.16E-04    0.17E-06
   0     10    11.376    51.690    0.45E-04    0.60E-04    0.21E-06
   0     10    11.376    30.015    0.37E-04    0.55E-04    0.19E-06
   1     10    11.376    18.849    0.83E-04    0.11E-03    0.92E-07
   1     10    11.376    14.624    0.69E-04    0.92E-04    0.82E-07
 Optimization of the real space projectors (new method)

 maximal supplied QI-value         = 16.25
 optimisation between [QCUT,QGAM] = [ 11.38, 22.75] = [ 36.24,144.96] Ry 
 Optimized for a Real-space Cutoff    1.43 Angstroem

   l    n(q)    QCUT    max X(q) W(low)/X(q) W(high)/X(q)  e(spline) 
   2      9    11.376    65.824    0.18E-03    0.28E-04    0.14E-06
   2      9    11.376    61.429    0.18E-03    0.29E-04    0.14E-06
   0     10    11.376    56.174    0.51E-04    0.12E-03    0.20E-06
   0     10    11.376    31.263    0.46E-04    0.11E-03    0.18E-06
   1      9    11.376    19.828    0.23E-03    0.17E-03    0.10E-06
   1      9    11.376    15.139    0.20E-03    0.14E-03    0.89E-07
 Optimization of the real space projectors (new method)

 maximal supplied QI-value         = 16.25
 optimisation between [QCUT,QGAM] = [ 11.38, 22.75] = [ 36.24,144.96] Ry 
 Optimized for a Real-space Cutoff    1.52 Angstroem

   l    n(q)    QCUT    max X(q) W(low)/X(q) W(high)/X(q)  e(spline) 
   2      9    11.376    80.901    0.22E-03    0.86E-04    0.27E-06
   2      9    11.376    75.754    0.23E-03    0.87E-04    0.27E-06
   0     10    11.376    58.752    0.56E-04    0.38E-04    0.25E-06
   0     10    11.376    30.679    0.47E-04    0.35E-04    0.23E-06
   1     10    11.376    17.977    0.50E-04    0.42E-04    0.12E-06
   1     10    11.376    13.559    0.42E-04    0.37E-04    0.11E-06
  PAW_PBE Pt 04Feb2005                  :
 energy of atom  1       EATOM= -729.1176
 kinetic energy error for atom=    0.0039 (will be added to EATOM!!)
  PAW_PBE Pd 04Jan2005                  :
 energy of atom  2       EATOM= -809.7530
 kinetic energy error for atom=    0.0049 (will be added to EATOM!!)
  PAW_PBE Ni 02Aug2007                  :
 energy of atom  3       EATOM=-1077.6739
 kinetic energy error for atom=    0.0030 (will be added to EATOM!!)
  PAW_PBE Co 02Aug2007                  :
 energy of atom  4       EATOM= -813.3670
 kinetic energy error for atom=    0.0028 (will be added to EATOM!!)
  PAW_PBE Fe 06Sep2000                  :
 energy of atom  5       EATOM= -594.3153
 kinetic energy error for atom=    0.0026 (will be added to EATOM!!)
 
 
 POSCAR: Pt   Pd   Ni   Co   Fe                  
  positions in direct lattice
  No initial velocities read in
 exchange correlation table for  LEXCH =        8
   RHO(1)=    0.500       N(1)  =     2000
   RHO(2)=  100.500       N(2)  =     4000
 


--------------------------------------------------------------------------------------------------------


 ion  position               nearest neighbor table
   1  0.337  0.115  0.374-   4 2.49  21 2.52  79 2.58  41 2.60  58 2.60  34 2.61  56 2.61  69 2.62
                             7 2.67  78 2.70  72 2.70  52 2.75
   2  0.350  0.606  0.374-  21 2.49  73 2.56  24 2.60  19 2.63  15 2.63  57 2.64  80 2.65  49 2.67
                             8 2.67  40 2.69  56 2.71  25 2.72
   3  0.592  0.871  0.096-  71 2.49  39 2.52  66 2.52  67 2.64  70 2.65  26 2.66  75 2.67  13 2.69
                            45 2.73
   4  0.096  0.114  0.374-  73 2.44  14 2.47  79 2.48  54 2.48   1 2.49  30 2.52  37 2.54  41 2.55
                            21 2.56  61 2.57  31 2.61  69 2.63
   5  0.190  0.780  0.185-  66 2.51  36 2.52  65 2.59   8 2.59  71 2.60  10 2.64  77 2.66  68 2.67
                            58 2.67  20 2.68   6 2.74  17 2.80
   6  0.192  0.046  0.191-  55 2.52  41 2.55  58 2.56  74 2.58  48 2.61  14 2.68  47 2.69  16 2.69
                            77 2.70  20 2.72   5 2.74  10 2.78
   7  0.597  0.368  0.374-  24 2.56  46 2.60  21 2.61  59 2.62  34 2.63  51 2.64  27 2.64  50 2.64
                             1 2.67  72 2.67  52 2.68  35 2.69
   8  0.266  0.693  0.278-   5 2.59  76 2.60  19 2.60  66 2.60  65 2.61  15 2.62  58 2.64  56 2.67
                             2 2.67  17 2.68  42 2.72  40 2.75
   9  0.935  0.283  0.190-  48 2.50  55 2.53  76 2.54  18 2.54  31 2.56  67 2.56  65 2.57  68 2.58
                            75 2.62  23 2.63  60 2.65  62 2.68
  10  0.106  0.870  0.091-  71 2.54  13 2.63   5 2.64  16 2.67  36 2.68  38 2.69  47 2.71  20 2.74
                             6 2.78
  11  0.175  0.787  0.468-  69 2.45  22 2.48  44 2.55  78 2.58  79 2.58  40 2.59  56 2.71  80 2.76
                            57 2.77
  12  0.938  0.276  0.468-  61 2.58  57 2.58  43 2.59  37 2.61  73 2.70  54 2.71  59 2.71  51 2.76
                            44 2.80
  13  0.853  0.872  0.094-  75 2.53  47 2.62  10 2.63  38 2.63  26 2.64  48 2.64  20 2.65  45 2.68
                             3 2.69
  14  0.014  0.958  0.285-  31 2.43  28 2.45   4 2.47  30 2.49  41 2.57  79 2.57  58 2.62  48 2.63
                            64 2.65  17 2.66   6 2.68  20 2.70
  15  0.523  0.702  0.281-  64 2.54  25 2.57  26 2.57  42 2.57  46 2.58  28 2.61   8 2.62   2 2.63
                            66 2.66  24 2.67  29 2.70  19 2.74
  16  0.361  0.128  0.094-  39 2.53  33 2.56  63 2.57  74 2.59  71 2.60  77 2.64  10 2.67   6 2.69
                            47 2.71
  17  0.009  0.698  0.284-  64 2.51  27 2.57  50 2.58  20 2.60  58 2.61  40 2.63  79 2.63  68 2.64
                            14 2.66  76 2.68   8 2.68   5 2.80
  18  0.765  0.201  0.278-  67 2.49  42 2.52   9 2.54  76 2.56  59 2.57  60 2.57  72 2.58  50 2.59
                            28 2.61  52 2.61  54 2.64  31 2.64
  19  0.259  0.438  0.280-  41 2.37  73 2.48  31 2.51  76 2.53  55 2.57  46 2.59   8 2.60  65 2.61
                            21 2.62   2 2.63  29 2.64  15 2.74
  20  0.932  0.782  0.189-  26 2.58  68 2.59  17 2.60  32 2.61  38 2.62  64 2.63  48 2.65  13 2.65
                             5 2.68  14 2.70   6 2.72  10 2.74
  21  0.342  0.361  0.376-  73 2.39  34 2.48   2 2.49  61 2.51   1 2.52  41 2.53   4 2.56  49 2.57
                             7 2.61  19 2.62  46 2.69  24 2.74
  22  0.934  0.783  0.464-  79 2.41  27 2.45  37 2.45  44 2.47  11 2.48  30 2.49  53 2.50  35 2.50
                            69 2.51
  23  0.848  0.370  0.097-  38 2.52  68 2.54  63 2.55  36 2.58  60 2.59  39 2.59   9 2.63  75 2.64
                            62 2.71
  24  0.608  0.622  0.378-  53 2.48  27 2.52  35 2.55   7 2.56  30 2.57  64 2.57  49 2.58  25 2.60
                             2 2.60  15 2.67  46 2.73  21 2.74
  25  0.608  0.872  0.371-  52 2.49  54 2.51  42 2.56  15 2.57  43 2.57  28 2.57  24 2.60  30 2.62
                            56 2.64  53 2.65  80 2.68   2 2.72
  26  0.684  0.786  0.189-  15 2.57  20 2.58  28 2.58  66 2.59  67 2.59  13 2.64  48 2.65   3 2.66
                            64 2.66  45 2.67  29 2.69  32 2.69
  27  0.852  0.621  0.378-  22 2.45  44 2.50  30 2.51  79 2.51  24 2.52  35 2.52  40 2.54  17 2.57
                            64 2.60   7 2.64  59 2.67  50 2.77
  28  0.775  0.953  0.280-  14 2.45  54 2.48  31 2.52  42 2.56  48 2.56  67 2.57  25 2.57  26 2.58
                            64 2.60  18 2.61  15 2.61  30 2.64
  29  0.428  0.525  0.186-  74 2.49  65 2.52  33 2.52  55 2.55  70 2.59  45 2.60  46 2.60  19 2.64
                            32 2.66  26 2.69  15 2.70  66 2.70
  30  0.858  0.867  0.375-  79 2.36  22 2.49  14 2.49  27 2.51  37 2.51  54 2.52   4 2.52  53 2.55
                            24 2.57  64 2.58  25 2.62  28 2.64
  31  0.018  0.195  0.279-  41 2.41  14 2.43  48 2.48  19 2.51  28 2.52  73 2.54  54 2.55   9 2.56
                            76 2.56  55 2.58   4 2.61  18 2.64
  32  0.685  0.525  0.189-  63 2.45  50 2.45  74 2.48  68 2.49  60 2.52  38 2.57  46 2.60  20 2.61
                            45 2.64  29 2.66  64 2.67  26 2.69
  33  0.347  0.370  0.094-  62 2.46  70 2.47  29 2.52  47 2.54  45 2.56  16 2.56  55 2.59  63 2.63
                            74 2.65
  34  0.423  0.288  0.466-  49 2.34  61 2.38  21 2.48   1 2.61  78 2.63   7 2.63  51 2.64  69 2.66
                            35 2.73
  35  0.693  0.543  0.469-  44 2.44  53 2.49  22 2.50  51 2.51  49 2.52  27 2.52  24 2.55   7 2.69
                            34 2.73
  36  0.104  0.609  0.097-  65 2.49  70 2.51   5 2.52  62 2.56  23 2.58  68 2.64  71 2.67  10 2.68
                            38 2.70
  37  0.938  0.023  0.466-  69 2.44  22 2.45  30 2.51  53 2.52   4 2.54  61 2.61  12 2.61  43 2.65
                            54 2.68
  38  0.845  0.614  0.096-  63 2.47  23 2.52  45 2.53  32 2.57  68 2.61  20 2.62  13 2.63  10 2.69
                            36 2.70
  39  0.600  0.119  0.097-  77 2.47  60 2.50   3 2.52  16 2.53  71 2.56  23 2.59  67 2.62  75 2.65
                            63 2.65
  40  0.094  0.614  0.378-  27 2.54  44 2.56  11 2.59  59 2.60  17 2.63  57 2.65  56 2.66  79 2.67
                             2 2.69  76 2.69  73 2.75   8 2.75
  41  0.257  0.208  0.283-  19 2.37  31 2.41  21 2.53   6 2.55   4 2.55  14 2.57  46 2.59   1 2.60
                            55 2.61  58 2.71  72 2.72  74 2.74
  42  0.528  0.954  0.279-  67 2.48  18 2.52  52 2.55  28 2.56  25 2.56  66 2.56  15 2.57  72 2.57
                            77 2.58  56 2.67   8 2.72  58 2.72
  43  0.686  0.030  0.465-  25 2.57  53 2.58  80 2.58  12 2.59  52 2.59  37 2.65  54 2.66  78 2.73
                            51 2.75
  44  0.929  0.542  0.469-  35 2.44  22 2.47  27 2.50  11 2.55  40 2.56  51 2.58  59 2.76  57 2.76
                            12 2.80
  45  0.599  0.610  0.095-  63 2.43  38 2.53  33 2.56  29 2.60  70 2.62  32 2.64  26 2.67  13 2.68
                             3 2.73
  46  0.514  0.448  0.280-  50 2.54  74 2.54  15 2.58  41 2.59  19 2.59  64 2.60  32 2.60   7 2.60
                            72 2.60  29 2.60  21 2.69  24 2.73
  47  0.099  0.129  0.096-  62 2.38  75 2.46  55 2.48  33 2.54  48 2.58  13 2.62   6 2.69  10 2.71
                            16 2.71
  48  0.938  0.042  0.189-  31 2.48   9 2.50  55 2.50  28 2.56  75 2.57  67 2.58  47 2.58   6 2.61
                            14 2.63  13 2.64  26 2.65  20 2.65
  49  0.439  0.522  0.468-  34 2.34  35 2.52  21 2.57  24 2.58  61 2.58  57 2.63   2 2.67  80 2.68
                            53 2.68
  50  0.760  0.449  0.278-  32 2.45  68 2.53  64 2.53  46 2.54  17 2.58  60 2.59  72 2.59  18 2.59
                             7 2.64  59 2.66  76 2.68  27 2.77
  51  0.681  0.294  0.471-  35 2.51  44 2.58   7 2.64  34 2.64  78 2.68  59 2.73  43 2.75  12 2.76
                            52 2.80
  52  0.600  0.109  0.372-  25 2.49  42 2.55  56 2.55  59 2.59  43 2.59  18 2.61  54 2.63  72 2.65
                             7 2.68   1 2.75  78 2.78  51 2.80
  53  0.692  0.784  0.465-  24 2.48  35 2.49  22 2.50  37 2.52  30 2.55  43 2.58  80 2.61  25 2.65
                            49 2.68
  54  0.854  0.109  0.369-  28 2.48   4 2.48  25 2.51  30 2.52  31 2.55  73 2.60  52 2.63  18 2.64
                            59 2.64  43 2.66  37 2.68  12 2.71
  55  0.179  0.283  0.186-  47 2.48  65 2.48  48 2.50  62 2.50   6 2.52   9 2.53  29 2.55  19 2.57
                            31 2.58  33 2.59  41 2.61  74 2.69
  56  0.351  0.869  0.373-  52 2.55  58 2.58   1 2.61  25 2.64  40 2.66   8 2.67  42 2.67  80 2.68
                            11 2.71   2 2.71  78 2.71  79 2.73
  57  0.187  0.525  0.469-  61 2.57  12 2.58  49 2.63  80 2.64   2 2.64  40 2.65  73 2.73  44 2.76
                            11 2.77
  58  0.262  0.948  0.281-   6 2.56  56 2.58   1 2.60  72 2.60  17 2.61  14 2.62   8 2.64   5 2.67
                            41 2.71  79 2.71  42 2.72  77 2.74
  59  0.847  0.361  0.371-  76 2.56  18 2.57  52 2.59  40 2.60   7 2.62  54 2.64  50 2.66  27 2.67
                            12 2.71  73 2.72  51 2.73  44 2.76
  60  0.675  0.276  0.187-  77 2.43  74 2.48  39 2.50  32 2.52  67 2.52  72 2.54  63 2.55  18 2.57
                            23 2.59  50 2.59  68 2.63   9 2.65
  61  0.188  0.276  0.467-  34 2.38  21 2.51  69 2.53  57 2.57   4 2.57  12 2.58  49 2.58  37 2.61
                            73 2.62
  62  0.106  0.363  0.094-  47 2.38  33 2.46  55 2.50  70 2.52  65 2.55  75 2.56  36 2.56   9 2.68
                            23 2.71
  63  0.605  0.378  0.099-  45 2.43  32 2.45  38 2.47  74 2.51  60 2.55  23 2.55  16 2.57  33 2.63
                            39 2.65
  64  0.765  0.696  0.284-  17 2.51  50 2.53  15 2.54  24 2.57  30 2.58  46 2.60  27 2.60  28 2.60
                            20 2.63  14 2.65  26 2.66  32 2.67
  65  0.185  0.527  0.185-  55 2.48  36 2.49  29 2.52  70 2.55  62 2.55   9 2.57   5 2.59   8 2.61
                            19 2.61  68 2.68  66 2.68  76 2.68
  66  0.437  0.791  0.187-  77 2.48   5 2.51   3 2.52  42 2.56  67 2.58  26 2.59   8 2.60  71 2.65
                            15 2.66  65 2.68  29 2.70  70 2.71
  67  0.686  0.038  0.191-  77 2.47  42 2.48  18 2.49  60 2.52   9 2.56  28 2.57  66 2.58  48 2.58
                            26 2.59  39 2.62   3 2.64  75 2.68
  68  0.928  0.529  0.189-  32 2.49  50 2.53  23 2.54   9 2.58  20 2.59  38 2.61  76 2.63  60 2.63
                            36 2.64  17 2.64   5 2.67  65 2.68
  69  0.175  0.024  0.469-  37 2.44  11 2.45  22 2.51  79 2.51  78 2.53  61 2.53   1 2.62   4 2.63
                            34 2.66
  70  0.345  0.608  0.093-  33 2.47  36 2.51  62 2.52  65 2.55  29 2.59  45 2.62   3 2.65  71 2.70
                            66 2.71
  71  0.353  0.873  0.092-   3 2.49  10 2.54  39 2.56  16 2.60   5 2.60  77 2.62  66 2.65  36 2.67
                            70 2.70
  72  0.514  0.196  0.278-  60 2.54  77 2.55  74 2.56  42 2.57  18 2.58  50 2.59  46 2.60  58 2.60
                            52 2.65   7 2.67   1 2.70  41 2.72
  73  0.108  0.355  0.370-  21 2.39   4 2.44  19 2.48  31 2.54   2 2.56  76 2.59  54 2.60  61 2.62
                            12 2.70  59 2.72  57 2.73  40 2.75
  74  0.442  0.291  0.188-  32 2.48  60 2.48  29 2.49  63 2.51  46 2.54  72 2.56   6 2.58  16 2.59
                            33 2.65  77 2.65  55 2.69  41 2.74
  75  0.857  0.120  0.095-  47 2.46  13 2.53  62 2.56  48 2.57   9 2.62  23 2.64  39 2.65   3 2.67
                            67 2.68
  76  0.016  0.442  0.281-  19 2.53   9 2.54  59 2.56  18 2.56  31 2.56  73 2.59   8 2.60  68 2.63
                            17 2.68  65 2.68  50 2.68  40 2.69
  77  0.447  0.036  0.186-  60 2.43  39 2.47  67 2.47  66 2.48  72 2.55  42 2.58  71 2.62  16 2.64
                            74 2.65   5 2.66   6 2.70  58 2.74
  78  0.424  0.034  0.472-  69 2.53  11 2.58  34 2.63  51 2.68  80 2.69   1 2.70  56 2.71  43 2.73
                            52 2.78
  79  0.087  0.869  0.377-  30 2.36  22 2.41   4 2.48  69 2.51  27 2.51  14 2.57   1 2.58  11 2.58
                            17 2.63  40 2.67  58 2.71  56 2.73
  80  0.439  0.781  0.467-  43 2.58  53 2.61  57 2.64   2 2.65  25 2.68  56 2.68  49 2.68  78 2.69
                            11 2.76
 
  LATTYP: Found a triclinic cell.
 ALAT       =    10.3868432389
 B/A-ratio  =     0.9959915721
 C/A-ratio  =     2.2062370504
 COS(alpha) =     0.0000653383
 COS(beta)  =     0.0014113726
 COS(gamma) =     0.5042489321
  
  Lattice vectors:
  
 A1 = (   9.0010430751,   5.1833912129,  -0.0138406413)
 A2 = (   8.9787924282,  -5.1385342585,  -0.0093561089)
 A3 = (  -0.0100718684,   0.0211110890, -22.9158264529)


Analysis of symmetry for initial positions (statically):
=====================================================================
 Subroutine PRICEL returns:
 Original cell was already a primitive cell.
 

 Routine SETGRP: Setting up the symmetry group for a 
 triclinic supercell.


 Subroutine GETGRP returns: Found  1 space group operations
 (whereof  1 operations were pure point group operations)
 out of a pool of  2 trial point group operations.


The static configuration has the point symmetry C_1 .


Analysis of symmetry for dynamics (positions and initial velocities):
=====================================================================
 Subroutine PRICEL returns:
 Original cell was already a primitive cell.
 

 Routine SETGRP: Setting up the symmetry group for a 
 triclinic supercell.


 Subroutine GETGRP returns: Found  1 space group operations
 (whereof  1 operations were pure point group operations)
 out of a pool of  2 trial point group operations.


The dynamic configuration has the point symmetry C_1 .


Analysis of constrained symmetry for selective dynamics:
=====================================================================
 Subroutine PRICEL returns:
 Original cell was already a primitive cell.
 

 Routine SETGRP: Setting up the symmetry group for a 
 triclinic supercell.


 Subroutine GETGRP returns: Found  1 space group operations
 (whereof  1 operations were pure point group operations)
 out of a pool of  2 trial point group operations.


The constrained configuration has the point symmetry C_1 .


Analysis of structural, dynamic, and magnetic symmetry:
=====================================================================
 Subroutine PRICEL returns:
 Original cell was already a primitive cell.
 

 Routine SETGRP: Setting up the symmetry group for a 
 triclinic supercell.


 Subroutine GETGRP returns: Found  1 space group operations
 (whereof  1 operations were pure point group operations)
 out of a pool of  2 trial point group operations.


The magnetic configuration has the point symmetry C_1 .


 Subroutine INISYM returns: Found  1 space group operations
 (whereof  1 operations are pure point group operations),
 and found     1 'primitive' translations

 
 
 KPOINTS: Automatic mesh                          

Automatic generation of k-mesh.
Space group operators:
 irot       det(A)        alpha          n_x          n_y          n_z        tau_x        tau_y        tau_z
    1     1.000000     0.000000     1.000000     0.000000     0.000000     0.000000     0.000000     0.000000
 
 Subroutine IBZKPT returns following result:
 ===========================================
 
 Found      1 irreducible k-points:
 
 Following reciprocal coordinates:
            Coordinates               Weight
  0.000000  0.000000  0.000000      1.000000
 
 Following cartesian coordinates:
            Coordinates               Weight
  0.000000  0.000000  0.000000      1.000000
 


--------------------------------------------------------------------------------------------------------




 Dimension of arrays:
   k-points           NKPTS =      1   k-points in BZ     NKDIM =      1   number of bands    NBANDS=    524
   number of dos      NEDOS =    301   number of ions     NIONS =     80
   non local maximal  LDIM  =      6   non local SUM 2l+1 LMDIM =     18
   total plane-waves  NPLWV = ******
   max r-space proj   IRMAX =   7467   max aug-charges    IRDMAX=  30821
   dimension x,y,z NGX =    80 NGY =   80 NGZ =  168
   dimension x,y,z NGXF=   160 NGYF=  160 NGZF=  336
   support grid    NGXF=   160 NGYF=  160 NGZF=  336
   ions per type =              16  13  19  18  14
   NGX,Y,Z   is equivalent  to a cutoff of  12.86, 12.88, 12.19 a.u.
   NGXF,Y,Z  is equivalent  to a cutoff of  25.71, 25.77, 24.38 a.u.

 SYSTEM =  ML                                      
 POSCAR =  Pt   Pd   Ni   Co   Fe                  

 Startparameter for this run:
   NWRITE =      2    write-flag & timer
   PREC   = accura    normal or accurate (medium, high low for compatibility)
   ISTART =      0    job   : 0-new  1-cont  2-samecut
   ICHARG =      2    charge: 1-file 2-atom 10-const
   ISPIN  =      2    spin polarized calculation?
   LNONCOLLINEAR =      F non collinear calculations
   LSORBIT =      F    spin-orbit coupling
   INIWAV =      1    electr: 0-lowe 1-rand  2-diag
   LASPH  =      F    aspherical Exc in radial PAW
   METAGGA=      F    non-selfconsistent MetaGGA calc.

 Electronic Relaxation 1
   ENCUT  =  500.0 eV  36.75 Ry    6.06 a.u.  18.86 18.82 41.78*2*pi/ulx,y,z
   ENINI  =  500.0     initial cutoff
   ENAUG  =  544.6 eV  augmentation charge cutoff
   NELM   =    300;   NELMIN=  4; NELMDL= -5     # of ELM steps 
   EDIFF  = 0.1E-05   stopping-criterion for ELM
   LREAL  =      T    real-space projection
   NLSPLINE    = F    spline interpolate recip. space projectors
   LCOMPAT=      F    compatible to vasp.4.4
   GGA_COMPAT  = T    GGA compatible to vasp.4.4-vasp.4.6
   LMAXPAW     = -100 max onsite density
   LMAXMIX     =    2 max onsite mixed and CHGCAR
   VOSKOWN=      0    Vosko Wilk Nusair interpolation
   ROPT   =   -0.00025  -0.00025  -0.00025  -0.00025
   ROPT   =   -0.00025
 Ionic relaxation
   EDIFFG = -.5E-01   stopping-criterion for IOM
   NSW    =    300    number of steps for IOM
   NBLOCK =      1;   KBLOCK =    300    inner block; outer block 
   IBRION =      2    ionic relax: 0-MD 1-quasi-New 2-CG
   NFREE  =      1    steps in history (QN), initial steepest desc. (CG)
   ISIF   =      2    stress and relaxation
   IWAVPR =     11    prediction:  0-non 1-charg 2-wave 3-comb
   ISYM   =      2    0-nonsym 1-usesym 2-fastsym
   LCORR  =      T    Harris-Foulkes like correction to forces

   POTIM  = 0.5000    time-step for ionic-motion
   TEIN   =    0.0    initial temperature
   TEBEG  =    0.0;   TEEND  =   0.0 temperature during run
   SMASS  =  -3.00    Nose mass-parameter (am)
   estimated Nose-frequenzy (Omega)   =  0.10E-29 period in steps =****** mass=  -0.245E-26a.u.
   SCALEE = 1.0000    scale energy and forces
   NPACO  =    256;   APACO  = 16.0  distance and # of slots for P.C.
   PSTRESS=    0.0 pullay stress

  Mass of Ions in am
   POMASS = 195.08106.42 58.69 58.93 55.85
  Ionic Valenz
   ZVAL   =  10.00 10.00 10.00  9.00  8.00
  Atomic Wigner-Seitz radii
   RWIGS  =  -1.00 -1.00 -1.00 -1.00 -1.00
  virtual crystal weights 
   VCA    =   1.00  1.00  1.00  1.00  1.00
   NELECT =     754.0000    total number of electrons
   NUPDOWN=      -1.0000    fix difference up-down

 DOS related values:
   EMIN   =  10.00;   EMAX   =-10.00  energy-range for DOS
   EFERMI =   0.00
   ISMEAR =     1;   SIGMA  =   0.10  broadening in eV -4-tet -1-fermi 0-gaus

 Electronic relaxation 2 (details)
   IALGO  =     68    algorithm
   LDIAG  =      T    sub-space diagonalisation (order eigenvalues)
   LSUBROT=      F    optimize rotation matrix (better conditioning)
   TURBO    =      0    0=normal 1=particle mesh
   IRESTART =      0    0=no restart 2=restart with 2 vectors
   NREBOOT  =      0    no. of reboots
   NMIN     =      0    reboot dimension
   EREF     =   0.00    reference energy to select bands
   IMIX   =      4    mixing-type and parameters
     AMIX     =   0.40;   BMIX     =  1.00
     AMIX_MAG =   1.60;   BMIX_MAG =  1.00
     AMIN     =   0.10
     WC   =   100.;   INIMIX=   1;  MIXPRE=   1;  MAXMIX= -45

 Intra band minimization:
   WEIMIN = 0.0010     energy-eigenvalue tresh-hold
   EBREAK =  0.48E-09  absolut break condition
   DEPER  =   0.30     relativ break condition  

   TIME   =   0.40     timestep for ELM

  volume/ion in A,a.u.               =      26.58       179.37
  Fermi-wavevector in a.u.,A,eV,Ry     =   1.158729  2.189681 18.267916  1.342654
  Thomas-Fermi vector in A             =   2.295329
 
 Write flags
   LWAVE        =      F    write WAVECAR
   LDOWNSAMPLE  =      F    k-point downsampling of WAVECAR
   LCHARG       =      F    write CHGCAR
   LVTOT        =      F    write LOCPOT, total local potential
   LVHAR        =      F    write LOCPOT, Hartree potential only
   LELF         =      F    write electronic localiz. function (ELF)
   LORBIT       =     11    0 simple, 1 ext, 2 COOP (PROOUT), +10 PAW based schemes


 Dipole corrections
   LMONO  =      F    monopole corrections only (constant potential shift)
   LDIPOL =      F    correct potential (dipole corrections)
   IDIPOL =      0    1-x, 2-y, 3-z, 4-all directions 
   EPSILON=  1.0000000 bulk dielectric constant

 Exchange correlation treatment:
   GGA     =    PE    GGA type
   LEXCH   =     8    internal setting for exchange type
   VOSKOWN=      0    Vosko Wilk Nusair interpolation
   LHFCALC =     F    Hartree Fock is set to
   LHFONE  =     F    Hartree Fock one center treatment
   AEXX    =    0.0000 exact exchange contribution

 Linear response parameters
   LEPSILON=     F    determine dielectric tensor
   LRPA    =     F    only Hartree local field effects (RPA)
   LNABLA  =     F    use nabla operator in PAW spheres
   LVEL    =     F    velocity operator in full k-point grid
   LINTERFAST=   F  fast interpolation
   KINTER  =     0    interpolate to denser k-point grid
   CSHIFT  =0.1000    complex shift for real part using Kramers Kronig
   OMEGAMAX=  -1.0    maximum frequency
   DEG_THRESHOLD= 0.2000000E-02 threshold for treating states as degnerate
   RTIME   =   -0.100 relaxation time in fs
  (WPLASMAI=    0.000 imaginary part of plasma frequency in eV, 0.658/RTIME)
   DFIELD  = 0.0000000 0.0000000 0.0000000 field for delta impulse in time
 
 Orbital magnetization related:
   ORBITALMAG=     F  switch on orbital magnetization
   LCHIMAG   =     F  perturbation theory with respect to B field
   DQ        =  0.001000  dq finite difference perturbation B field
   LLRAUG    =     F  two centre corrections for induced B field



--------------------------------------------------------------------------------------------------------


 conjugate gradient relaxation of ions
   using selective dynamics as specified on POSCAR
 charge density and potential will be updated during run
 spin polarized calculation
 RMM-DIIS sequential band-by-band and
  variant of blocked Davidson during initial phase
 perform sub-space diagonalisation
    before iterative eigenvector-optimisation
 modified Broyden-mixing scheme, WC =      100.0
 initial mixing is a Kerker type mixing with AMIX =  0.4000 and BMIX =      1.0000
 Hartree-type preconditioning will be used
 using additional bands          147
 real space projection scheme for non local part
 use partial core corrections
 calculate Harris-corrections to forces 
   (improved forces if not selfconsistent)
 use gradient corrections 
 use of overlap-Matrix (Vanderbilt PP)
 Methfessel and Paxton  Order N= 1 SIGMA  =   0.10


--------------------------------------------------------------------------------------------------------


  energy-cutoff  :      500.00
  volume of cell :     2126.42
      direct lattice vectors                 reciprocal lattice vectors
     8.978792428 -5.138534259 -0.009356109     0.111236258 -0.000239810 -0.000049111
     0.022250647 10.321925471 -0.004484532     0.055376539  0.096761804  0.000064802
     0.010071868 -0.021111089 22.915826453     0.000056253  0.000018838  0.043637956

  length of vectors
    10.345208327 10.321950428 22.915838390     0.111236527  0.111487273  0.043637997


 
 k-points in units of 2pi/SCALE and weight: Automatic mesh                          
   0.00000000  0.00000000  0.00000000       1.000
 
 k-points in reciprocal lattice and weights: Automatic mesh                          
   0.00000000  0.00000000  0.00000000       1.000
 
 position of ions in fractional coordinates (direct lattice) 
   0.33729257  0.11483926  0.37360259
   0.35019695  0.60614981  0.37379576
   0.59216758  0.87080374  0.09550745
   0.09618435  0.11351094  0.37406295
   0.18964345  0.78023866  0.18477125
   0.19172521  0.04600335  0.19114681
   0.59729280  0.36810956  0.37351224
   0.26552862  0.69334908  0.27847961
   0.93450315  0.28281342  0.18969324
   0.10564778  0.86985400  0.09139379
   0.17494832  0.78692514  0.46840990
   0.93847841  0.27601860  0.46773820
   0.85261527  0.87224395  0.09436398
   0.01352794  0.95774385  0.28510668
   0.52270001  0.70231906  0.28106404
   0.36102056  0.12842703  0.09420268
   0.00850003  0.69772104  0.28406894
   0.76537930  0.20056226  0.27849885
   0.25883026  0.43797608  0.27987806
   0.93164527  0.78210957  0.18949456
   0.34167627  0.36069986  0.37557692
   0.93368297  0.78349019  0.46381747
   0.84794355  0.37048816  0.09729228
   0.60837521  0.62165889  0.37764826
   0.60770138  0.87248140  0.37129877
   0.68420634  0.78560656  0.18858490
   0.85191491  0.62114257  0.37797528
   0.77453936  0.95272147  0.28020518
   0.42794869  0.52498940  0.18592413
   0.85778792  0.86679046  0.37469326
   0.01811559  0.19508589  0.27897558
   0.68515027  0.52548753  0.18857896
   0.34745438  0.36970079  0.09397440
   0.42299910  0.28753533  0.46558692
   0.69305063  0.54286998  0.46874417
   0.10395999  0.60940576  0.09716832
   0.93841900  0.02290544  0.46580582
   0.84514079  0.61361234  0.09584801
   0.60033211  0.11896258  0.09691898
   0.09406616  0.61394307  0.37786383
   0.25740751  0.20776060  0.28254041
   0.52777164  0.95398588  0.27904244
   0.68603904  0.03034885  0.46504252
   0.92856728  0.54189311  0.46857531
   0.59918732  0.61008141  0.09453106
   0.51436782  0.44808833  0.27977760
   0.09945421  0.12892334  0.09579516
   0.93776523  0.04190364  0.18871929
   0.43932425  0.52162749  0.46835842
   0.76026145  0.44933920  0.27766761
   0.68070044  0.29372745  0.47061590
   0.60023076  0.10949276  0.37208012
   0.69228191  0.78397337  0.46515356
   0.85399518  0.10872217  0.36940755
   0.17878999  0.28294822  0.18565247
   0.35078058  0.86853912  0.37268488
   0.18689064  0.52494256  0.46929992
   0.26168532  0.94754672  0.28101209
   0.84745951  0.36115967  0.37127636
   0.67468442  0.27596967  0.18718354
   0.18760890  0.27603933  0.46663496
   0.10586798  0.36270367  0.09403631
   0.60527919  0.37841092  0.09859221
   0.76532066  0.69648839  0.28385719
   0.18549425  0.52690709  0.18508883
   0.43704102  0.79127311  0.18720509
   0.68648672  0.03765331  0.19062250
   0.92790996  0.52918016  0.18928201
   0.17466912  0.02447080  0.46851251
   0.34533989  0.60786064  0.09316442
   0.35304565  0.87316082  0.09153082
   0.51394922  0.19627775  0.27827481
   0.10783606  0.35522631  0.37044188
   0.44247695  0.29085737  0.18762028
   0.85705467  0.11954673  0.09498862
   0.01602361  0.44225892  0.28144144
   0.44699204  0.03596852  0.18619732
   0.42403138  0.03408490  0.47158571
   0.08699417  0.86900027  0.37749836
   0.43855213  0.78069113  0.46731972
 
 position of ions in cartesian coordinates  (Angst):
   3.03479809 -0.55571427  8.55774132
   3.16159774  4.44924297  8.55984409
   5.33728769  5.94348159  2.17918672
   0.86991250  0.66950799  8.57055268
   1.72199098  7.07517518  4.22891252
   1.72440964 -0.51437870  4.37828706
   5.37492070  0.72250470  8.55210253
   2.40235861  5.78639058  6.37599675
   8.39891319 -1.88680201  4.33696585
   0.96886481  8.43376396  2.08947479
   1.59305199  7.21371606 10.72883421
   8.43725544 -1.98323453 10.70858907
   7.67581392  4.62005212  2.15053971
   0.14564657  9.81022795  6.52903367
   4.71167276  4.55743957  6.43277485
   3.24533508 -0.53149103  2.15477848
   0.09470586  7.15214983  6.50646599
   6.87944953 -1.86861853  6.37397084
   2.33654731  3.18483975  6.40925129
   8.38436049  3.28158517  4.33020044
   3.07964887  1.95947303  8.60184111
   8.40545023  3.27957372 10.61651147
   7.62273265 -0.53508976  2.21993801
   5.48011067  3.28258726  8.64564201
   5.47957749  5.87515509  8.49901982
   6.16272640  4.58917344  4.31165427
   7.66679488  2.02581388  8.65085985
   6.97844902  5.84800750  6.40961412
   3.85601645  3.21594735  4.25424692
   7.72496023  4.53126367  8.57449307
   0.16980670  1.91468492  6.39191157
   6.16541381  1.89939393  4.31267587
   3.12889336  2.02863387  2.14859234
   3.80910834  0.78449381 10.66406202
   6.23955811  2.03230330 10.73274137
   0.94797355  5.75398751  2.22298668
   8.43107060 -4.59550361 10.66544265
   7.60296237  1.98885247  2.18577747
   5.39388059 -1.85895036  2.21482834
   0.86206693  5.84573536  8.65542863
   2.31867710  0.81582741  6.47130690
   4.76278928  7.12910761  6.38527200
   6.16516124 -3.22179407 10.65027884
   8.35418976  0.81201335 10.72667263
   5.39450541  3.21627458  2.15791533
   4.63119001  1.97613133  6.40451292
   0.89681219  0.81766592  2.19371650
   8.42283248 -4.39019653  4.31569664
   3.96092503  3.11682986 10.72637057
   6.83902451  0.72555432  6.35385470
   6.12314359 -0.47590493 10.77686628
   5.39553123 -1.96198521  8.52041656
   6.23798449  4.52498043 10.64938547
   7.67398522 -3.27385999  8.45680164
   1.61348385  1.99793263  4.25143805
   3.17266524  7.15463019  8.53320513
   1.69445927  4.44816662 10.75029275
   2.37353204  8.42989515  6.43292656
   7.62093850 -0.63467454  8.49855615
   6.06587714 -0.62230230  4.28191550
   1.69534335  1.87537141 10.69033263
   0.95958415  3.19780874  2.15230258
   5.44408909  0.79360008  2.25196194
   6.89001160  3.25048231  6.49453817
   1.67910256  4.48161972  4.23736501
   3.94359244  5.91775967  4.28232191
   6.16657951 -3.14290516  4.36168053
   8.34519197  0.69006505  4.32649900
   1.57358110 -0.65484830 10.73460737
   3.11519886  4.49778456  2.12898264
   3.19027389  7.19663143  2.09028551
   4.62181343 -0.62085607  6.37120853
   0.97987268  3.10467979  8.48637990
   3.98127018  0.72456424  4.29402945
   7.69893268 -3.17205761  2.16818800
   0.15654790  4.47668423  6.44732995
   4.01612445 -1.92955040  4.26252197
   3.81279788 -1.83703370 10.80265624
   0.80424057  8.51476407  8.64597599
   3.95974623  5.79485484 10.70141335
 


--------------------------------------------------------------------------------------------------------


 k-point  1 :   0.0000 0.0000 0.0000  plane waves:   53903

 maximum and minimum number of plane-waves per node :      3372     3365

 maximum number of plane-waves:     53903
 maximum index in each direction: 
   IXMAX=   18   IYMAX=   18   IZMAX=   41
   IXMIN=  -18   IYMIN=  -18   IZMIN=  -41


 real space projection operators:
  total allocation   :      75264.61 KBytes
  max/ min on nodes  :       4729.36       4682.67


 parallel 3D FFT for wavefunctions:
    minimum data exchange during FFTs selected (reduces bandwidth)
 parallel 3D FFT for charge:
    minimum data exchange during FFTs selected (reduces bandwidth)


 total amount of memory used by VASP MPI-rank0    90178. kBytes
=======================================================================

   base      :      30000. kBytes
   nonlr-proj:      15999. kBytes
   fftplans  :       7274. kBytes
   grid      :      22246. kBytes
   one-center:        155. kBytes
   wavefun   :      14504. kBytes
 
     INWAV:  cpu time    0.0000: real time    0.0003
 Broyden mixing: mesh for mixing (old mesh)
   NGX = 37   NGY = 37   NGZ = 83
  (NGX  =160   NGY  =160   NGZ  =336)
  gives a total of 113627 points

 initial charge density was supplied:
 charge density of overlapping atoms calculated
 number of electron     754.0000000 magnetization     142.0000000
 keeping initial charge density in first step


--------------------------------------------------------------------------------------------------------


 Maximum index for non-local projection operator          518
 Maximum index for augmentation-charges         1028 (set IRDMAX)


--------------------------------------------------------------------------------------------------------


 First call to EWALD:  gamma=   0.138
 Maximum number of real-space cells 4x 4x 2
 Maximum number of reciprocal cells 2x 2x 5

    FEWALD:  cpu time    0.0053: real time    0.0053


--------------------------------------- Iteration      1(   1)  ---------------------------------------


    POTLOK:  cpu time    0.2438: real time    0.2470
    SETDIJ:  cpu time    0.0250: real time    0.0254
     EDDAV:  cpu time   11.3168: real time   11.4000
       DOS:  cpu time    0.0014: real time    0.0014
    --------------------------------------------
      LOOP:  cpu time   11.5870: real time   11.6738

 eigenvalue-minimisations  :  2096
 total energy-change (2. order) : 0.6747912E+04  (-0.3146531E+05)
 number of electron     754.0000000 magnetization     142.0000000
 augmentation part      754.0000000 magnetization     142.0000000

 Free energy of the ion-electron system (eV)
  ---------------------------------------------------
  alpha Z        PSCENC =      1912.58173914
  Ewald energy   TEWEN  =    249888.69752271
  -Hartree energ DENC   =   -317245.60306340
  -exchange      EXHF   =         0.00000000
  -V(xc)+E(xc)   XCENC  =       663.35454626
  PAW double counting   =     60629.51332297   -61700.05104050
  entropy T*S    EENTRO =         0.00626637
  eigenvalues    EBANDS =      6970.18845916
  atomic energy  EATOM  =     65629.22392794
  Solvation  Ediel_sol  =         0.00000000
  ---------------------------------------------------
  free energy    TOTEN  =      6747.91168064 eV

  energy without entropy =     6747.90541428  energy(sigma->0) =     6747.90959186


--------------------------------------------------------------------------------------------------------




--------------------------------------- Iteration      1(   2)  ---------------------------------------


     EDDAV:  cpu time   11.2122: real time   11.2911
       DOS:  cpu time    0.0015: real time    0.0015
    --------------------------------------------
      LOOP:  cpu time   11.2137: real time   11.2926

 eigenvalue-minimisations  :  2096
 total energy-change (2. order) :-0.6346006E+04  (-0.5801411E+04)
 number of electron     754.0000000 magnetization     142.0000000
 augmentation part      754.0000000 magnetization     142.0000000

 Free energy of the ion-electron system (eV)
  ---------------------------------------------------
  alpha Z        PSCENC =      1912.58173914
  Ewald energy   TEWEN  =    249888.69752271
  -Hartree energ DENC   =   -317245.60306340
  -exchange      EXHF   =         0.00000000
  -V(xc)+E(xc)   XCENC  =       663.35454626
  PAW double counting   =     60629.51332297   -61700.05104050
  entropy T*S    EENTRO =         0.00485144
  eigenvalues    EBANDS =       624.18396565
  atomic energy  EATOM  =     65629.22392794
  Solvation  Ediel_sol  =         0.00000000
  ---------------------------------------------------
  free energy    TOTEN  =       401.90577220 eV

  energy without entropy =      401.90092076  energy(sigma->0) =      401.90415506


--------------------------------------------------------------------------------------------------------




--------------------------------------- Iteration      1(   3)  ---------------------------------------


     EDDAV:  cpu time   11.9766: real time   12.0602
       DOS:  cpu time    0.0015: real time    0.0015
    --------------------------------------------
      LOOP:  cpu time   11.9782: real time   12.0617

 eigenvalue-minimisations  :  2276
 total energy-change (2. order) :-0.8739080E+03  (-0.7148213E+03)
 number of electron     754.0000000 magnetization     142.0000000
 augmentation part      754.0000000 magnetization     142.0000000

 Free energy of the ion-electron system (eV)
  ---------------------------------------------------
  alpha Z        PSCENC =      1912.58173914
  Ewald energy   TEWEN  =    249888.69752271
  -Hartree energ DENC   =   -317245.60306340
  -exchange      EXHF   =         0.00000000
  -V(xc)+E(xc)   XCENC  =       663.35454626
  PAW double counting   =     60629.51332297   -61700.05104050
  entropy T*S    EENTRO =         0.01044924
  eigenvalues    EBANDS =      -249.72962898
  atomic energy  EATOM  =     65629.22392794
  Solvation  Ediel_sol  =         0.00000000
  ---------------------------------------------------
  free energy    TOTEN  =      -472.00222462 eV

  energy without entropy =     -472.01267386  energy(sigma->0) =     -472.00570770


--------------------------------------------------------------------------------------------------------




--------------------------------------- Iteration      1(   4)  ---------------------------------------


     EDDAV:  cpu time   12.4362: real time   12.5246
       DOS:  cpu time    0.0014: real time    0.0014
    --------------------------------------------
      LOOP:  cpu time   12.4376: real time   12.5260

 eigenvalue-minimisations  :  2368
 total energy-change (2. order) :-0.7306942E+02  (-0.6906860E+02)
 number of electron     754.0000000 magnetization     142.0000000
 augmentation part      754.0000000 magnetization     142.0000000

 Free energy of the ion-electron system (eV)
  ---------------------------------------------------
  alpha Z        PSCENC =      1912.58173914
  Ewald energy   TEWEN  =    249888.69752271
  -Hartree energ DENC   =   -317245.60306340
  -exchange      EXHF   =         0.00000000
  -V(xc)+E(xc)   XCENC  =       663.35454626
  PAW double counting   =     60629.51332297   -61700.05104050
  entropy T*S    EENTRO =         0.00130352
  eigenvalues    EBANDS =      -322.78990053
  atomic energy  EATOM  =     65629.22392794
  Solvation  Ediel_sol  =         0.00000000
  ---------------------------------------------------
  free energy    TOTEN  =      -545.07164189 eV

  energy without entropy =     -545.07294541  energy(sigma->0) =     -545.07207640


--------------------------------------------------------------------------------------------------------




--------------------------------------- Iteration      1(   5)  ---------------------------------------


     EDDAV:  cpu time   12.4618: real time   12.5537
       DOS:  cpu time    0.0013: real time    0.0014
    CHARGE:  cpu time    0.3010: real time    0.3027
    MIXING:  cpu time    0.0080: real time    0.0086
    --------------------------------------------
      LOOP:  cpu time   12.7722: real time   12.8664

 eigenvalue-minimisations  :  2384
 total energy-change (2. order) :-0.1777962E+01  (-0.1771508E+01)
 number of electron     754.0000027 magnetization     137.4986510
 augmentation part      339.6359824 magnetization     109.8840331

 Broyden mixing:
  rms(total) = 0.10388E+02    rms(broyden)= 0.10388E+02
  rms(prec ) = 0.10725E+02
  weight for this iteration     100.00

 Free energy of the ion-electron system (eV)
  ---------------------------------------------------
  alpha Z        PSCENC =      1912.58173914
  Ewald energy   TEWEN  =    249888.69752271
  -Hartree energ DENC   =   -317245.60306340
  -exchange      EXHF   =         0.00000000
  -V(xc)+E(xc)   XCENC  =       663.35454626
  PAW double counting   =     60629.51332297   -61700.05104050
  entropy T*S    EENTRO =         0.00185749
  eigenvalues    EBANDS =      -324.56841698
  atomic energy  EATOM  =     65629.22392794
  Solvation  Ediel_sol  =         0.00000000
  ---------------------------------------------------
  free energy    TOTEN  =      -546.84960437 eV

  energy without entropy =     -546.85146186  energy(sigma->0) =     -546.85022353


--------------------------------------------------------------------------------------------------------




--------------------------------------- Iteration      1(   6)  ---------------------------------------


    POTLOK:  cpu time    0.2306: real time    0.2324
    SETDIJ:  cpu time    0.0233: real time    0.0235
    EDDIAG:  cpu time    1.4491: real time    1.4602
  RMM-DIIS:  cpu time    4.6244: real time    4.6537
    ORTHCH:  cpu time    0.6174: real time    0.6208
       DOS:  cpu time    0.0012: real time    0.0013
    CHARGE:  cpu time    0.2931: real time    0.2945
    MIXING:  cpu time    0.0080: real time    0.0084
    --------------------------------------------
      LOOP:  cpu time    7.2471: real time    7.2948

 eigenvalue-minimisations  :  2100
 total energy-change (2. order) :-0.1945164E+03  (-0.9125351E+02)
 number of electron     754.0000026 magnetization     135.0434629
 augmentation part      393.3068876 magnetization     120.7915504

 Broyden mixing:
  rms(total) = 0.18847E+02    rms(broyden)= 0.18847E+02
  rms(prec ) = 0.21379E+02
  weight for this iteration     100.00

 eigenvalues of (default mixing * dielectric matrix)
  average eigenvalue GAMMA=   0.2356
  0.2356

 Free energy of the ion-electron system (eV)
  ---------------------------------------------------
  alpha Z        PSCENC =      1912.58173914
  Ewald energy   TEWEN  =    249888.69752271
  -Hartree energ DENC   =   -316440.59159581
  -exchange      EXHF   =         0.00000000
  -V(xc)+E(xc)   XCENC  =       616.89258187
  PAW double counting   =     66371.47553445   -67259.81648487
  entropy T*S    EENTRO =         0.00770466
  eigenvalues    EBANDS =     -1459.83697457
  atomic energy  EATOM  =     65629.22392794
  Solvation  Ediel_sol  =         0.00000000
  ---------------------------------------------------
  free energy    TOTEN  =      -741.36604447 eV

  energy without entropy =     -741.37374914  energy(sigma->0) =     -741.36861270


--------------------------------------------------------------------------------------------------------




--------------------------------------- Iteration      1(   7)  ---------------------------------------


    POTLOK:  cpu time    0.2292: real time    0.2308
    SETDIJ:  cpu time    0.0236: real time    0.0237
    EDDIAG:  cpu time    1.7286: real time    1.7403
  RMM-DIIS:  cpu time    4.6229: real time    4.6599
    ORTHCH:  cpu time    0.6145: real time    0.6178
       DOS:  cpu time    0.0013: real time    0.0013
    CHARGE:  cpu time    0.2957: real time    0.2973
    MIXING:  cpu time    0.0080: real time    0.0081
    --------------------------------------------
      LOOP:  cpu time    7.5236: real time    7.5791

 eigenvalue-minimisations  :  2099
 total energy-change (2. order) : 0.1358585E+03  (-0.2561217E+02)
 number of electron     754.0000034 magnetization     133.2056425
 augmentation part      375.4472612 magnetization     111.6231684

 Broyden mixing:
  rms(total) = 0.15269E+02    rms(broyden)= 0.15269E+02
  rms(prec ) = 0.20826E+02
  weight for this iteration     100.00

 eigenvalues of (default mixing * dielectric matrix)
  average eigenvalue GAMMA=   0.2171
  0.2619  0.1723

 Free energy of the ion-electron system (eV)
  ---------------------------------------------------
  alpha Z        PSCENC =      1912.58173914
  Ewald energy   TEWEN  =    249888.69752271
  -Hartree energ DENC   =   -316160.57683681
  -exchange      EXHF   =         0.00000000
  -V(xc)+E(xc)   XCENC  =       618.89605550
  PAW double counting   =     67543.16934429   -68575.72926481
  entropy T*S    EENTRO =         0.00914780
  eigenvalues    EBANDS =     -1461.77914850
  atomic energy  EATOM  =     65629.22392794
  Solvation  Ediel_sol  =         0.00000000
  ---------------------------------------------------
  free energy    TOTEN  =      -605.50751273 eV

  energy without entropy =     -605.51666053  energy(sigma->0) =     -605.51056200


--------------------------------------------------------------------------------------------------------




--------------------------------------- Iteration      1(   8)  ---------------------------------------


    POTLOK:  cpu time    0.2269: real time    0.2289
    SETDIJ:  cpu time    0.0233: real time    0.0234
    EDDIAG:  cpu time    1.4675: real time    1.4773
  RMM-DIIS:  cpu time    4.6060: real time    4.6349
    ORTHCH:  cpu time    0.6145: real time    0.6179
       DOS:  cpu time    0.0013: real time    0.0013
    CHARGE:  cpu time    0.2987: real time    0.3001
    MIXING:  cpu time    0.0075: real time    0.0076
    --------------------------------------------
      LOOP:  cpu time    7.2457: real time    7.2913

 eigenvalue-minimisations  :  2100
 total energy-change (2. order) :-0.5182393E+02  (-0.1101959E+02)
 number of electron     754.0000036 magnetization     130.5105962
 augmentation part      366.6002780 magnetization     105.2222663

 Broyden mixing:
  rms(total) = 0.17139E+02    rms(broyden)= 0.17138E+02
  rms(prec ) = 0.23420E+02
  weight for this iteration     100.00

 eigenvalues of (default mixing * dielectric matrix)
  average eigenvalue GAMMA=   0.2299
  0.3099  0.3099  0.0700

 Free energy of the ion-electron system (eV)
  ---------------------------------------------------
  alpha Z        PSCENC =      1912.58173914
  Ewald energy   TEWEN  =    249888.69752271
  -Hartree energ DENC   =   -316368.11606883
  -exchange      EXHF   =         0.00000000
  -V(xc)+E(xc)   XCENC  =       620.68663749
  PAW double counting   =     68389.52118819   -69471.83966071
  entropy T*S    EENTRO =        -0.02412031
  eigenvalues    EBANDS =     -1258.06260586
  atomic energy  EATOM  =     65629.22392794
  Solvation  Ediel_sol  =         0.00000000
  ---------------------------------------------------
  free energy    TOTEN  =      -657.33144024 eV

  energy without entropy =     -657.30731993  energy(sigma->0) =     -657.32340013


--------------------------------------------------------------------------------------------------------




--------------------------------------- Iteration      1(   9)  ---------------------------------------


    POTLOK:  cpu time    0.2278: real time    0.2297
    SETDIJ:  cpu time    0.0241: real time    0.0242
    EDDIAG:  cpu time    1.4553: real time    1.4648
  RMM-DIIS:  cpu time    4.6061: real time    4.6348
    ORTHCH:  cpu time    0.6167: real time    0.6202
       DOS:  cpu time    0.0013: real time    0.0013
    CHARGE:  cpu time    0.2895: real time    0.2909
    MIXING:  cpu time    0.0080: real time    0.0081
    --------------------------------------------
      LOOP:  cpu time    7.2288: real time    7.2741

 eigenvalue-minimisations  :  2101
 total energy-change (2. order) : 0.6360657E+02  (-0.1187717E+02)
 number of electron     754.0000028 magnetization     126.5660432
 augmentation part      370.8313946 magnetization      98.9123614

 Broyden mixing:
  rms(total) = 0.14644E+02    rms(broyden)= 0.14643E+02
  rms(prec ) = 0.16788E+02
  weight for this iteration     100.00

 eigenvalues of (default mixing * dielectric matrix)
  average eigenvalue GAMMA=   0.2687
  0.4443  0.4443  0.1125  0.0738

 Free energy of the ion-electron system (eV)
  ---------------------------------------------------
  alpha Z        PSCENC =      1912.58173914
  Ewald energy   TEWEN  =    249888.69752271
  -Hartree energ DENC   =   -316629.19737057
  -exchange      EXHF   =         0.00000000
  -V(xc)+E(xc)   XCENC  =       621.92643161
  PAW double counting   =     69520.77220516   -70630.66573081
  entropy T*S    EENTRO =        -0.00043989
  eigenvalues    EBANDS =      -907.06315478
  atomic energy  EATOM  =     65629.22392794
  Solvation  Ediel_sol  =         0.00000000
  ---------------------------------------------------
  free energy    TOTEN  =      -593.72486949 eV

  energy without entropy =     -593.72442960  energy(sigma->0) =     -593.72472286


--------------------------------------------------------------------------------------------------------




--------------------------------------- Iteration      1(  10)  ---------------------------------------


    POTLOK:  cpu time    0.2283: real time    0.2299
    SETDIJ:  cpu time    0.0240: real time    0.0242
    EDDIAG:  cpu time    1.4654: real time    1.4748
  RMM-DIIS:  cpu time    4.6015: real time    4.6301
    ORTHCH:  cpu time    0.6166: real time    0.6198
       DOS:  cpu time    0.0012: real time    0.0012
    CHARGE:  cpu time    0.3052: real time    0.3066
    MIXING:  cpu time    0.0080: real time    0.0080
    --------------------------------------------
      LOOP:  cpu time    7.2501: real time    7.2946

 eigenvalue-minimisations  :  2102
 total energy-change (2. order) : 0.7503698E+02  (-0.1783824E+02)
 number of electron     754.0000021 magnetization     123.4453127
 augmentation part      374.9530418 magnetization      92.7705440

 Broyden mixing:
  rms(total) = 0.12003E+02    rms(broyden)= 0.12003E+02
  rms(prec ) = 0.13871E+02
  weight for this iteration     100.00

 eigenvalues of (default mixing * dielectric matrix)
  average eigenvalue GAMMA=   0.3100
  0.6550  0.5448  0.1661  0.1154  0.0684

 Free energy of the ion-electron system (eV)
  ---------------------------------------------------
  alpha Z        PSCENC =      1912.58173914
  Ewald energy   TEWEN  =    249888.69752271
  -Hartree energ DENC   =   -316514.56948635
  -exchange      EXHF   =         0.00000000
  -V(xc)+E(xc)   XCENC  =       632.49856388
  PAW double counting   =     71033.48130664   -72168.67115190
  entropy T*S    EENTRO =         0.00810428
  eigenvalues    EBANDS =      -931.93841820
  atomic energy  EATOM  =     65629.22392794
  Solvation  Ediel_sol  =         0.00000000
  ---------------------------------------------------
  free energy    TOTEN  =      -518.68789185 eV

  energy without entropy =     -518.69599614  energy(sigma->0) =     -518.69059328


--------------------------------------------------------------------------------------------------------




--------------------------------------- Iteration      1(  11)  ---------------------------------------


    POTLOK:  cpu time    0.2313: real time    0.2329
    SETDIJ:  cpu time    0.0246: real time    0.0248
    EDDIAG:  cpu time    1.4620: real time    1.4717
  RMM-DIIS:  cpu time    4.6209: real time    4.6501
    ORTHCH:  cpu time    0.6163: real time    0.6198
       DOS:  cpu time    0.0012: real time    0.0012
    CHARGE:  cpu time    0.3060: real time    0.3075
    MIXING:  cpu time    0.0082: real time    0.0082
    --------------------------------------------
      LOOP:  cpu time    7.2706: real time    7.3162

 eigenvalue-minimisations  :  2101
 total energy-change (2. order) : 0.2932986E+02  (-0.1427102E+02)
 number of electron     754.0000026 magnetization     120.9572588
 augmentation part      375.1611059 magnetization      89.8639677

 Broyden mixing:
  rms(total) = 0.10374E+02    rms(broyden)= 0.10374E+02
  rms(prec ) = 0.11543E+02
  weight for this iteration     100.00

 eigenvalues of (default mixing * dielectric matrix)
  average eigenvalue GAMMA=   0.3350
  0.8763  0.6024  0.2288  0.1177  0.1177  0.0673

 Free energy of the ion-electron system (eV)
  ---------------------------------------------------
  alpha Z        PSCENC =      1912.58173914
  Ewald energy   TEWEN  =    249888.69752271
  -Hartree energ DENC   =   -316650.35108836
  -exchange      EXHF   =         0.00000000
  -V(xc)+E(xc)   XCENC  =       635.74814862
  PAW double counting   =     72099.87206667   -73270.08075743
  entropy T*S    EENTRO =        -0.00038493
  eigenvalues    EBANDS =      -735.04920427
  atomic energy  EATOM  =     65629.22392794
  Solvation  Ediel_sol  =         0.00000000
  ---------------------------------------------------
  free energy    TOTEN  =      -489.35802992 eV

  energy without entropy =     -489.35764499  energy(sigma->0) =     -489.35790161


--------------------------------------------------------------------------------------------------------




--------------------------------------- Iteration      1(  12)  ---------------------------------------


    POTLOK:  cpu time    0.2292: real time    0.2309
    SETDIJ:  cpu time    0.0242: real time    0.0243
[...]
   0.158E+02 -.125E+02 -.137E+04   -.156E+02 0.124E+02 0.137E+04   -.283E+00 0.119E+00 0.360E+00   -.277E-03 -.392E-03 0.191E-03
   -.178E+02 0.488E+02 0.139E+04   0.170E+02 -.485E+02 -.139E+04   0.513E+00 0.111E+00 -.458E+00   0.356E-03 -.617E-03 0.831E-03
   0.528E+01 0.247E+02 -.279E+04   -.486E+01 -.247E+02 0.279E+04   -.476E+00 0.566E-01 0.150E+01   0.197E-03 0.668E-05 0.104E-03
   0.555E+02 -.661E+02 0.282E+04   -.549E+02 0.662E+02 -.282E+04   -.587E+00 0.326E+00 -.158E+01   -.379E-03 -.269E-03 -.308E-03
   0.233E+02 0.592E+02 0.279E+04   -.236E+02 -.592E+02 -.278E+04   -.116E+00 -.298E+00 -.160E+01   0.486E-06 -.146E-03 -.350E-03
   -.323E+02 -.484E+02 -.354E+02   0.321E+02 0.480E+02 0.353E+02   0.351E+00 0.391E+00 0.730E-01   -.909E-06 -.173E-03 0.591E-03
   0.104E+02 -.681E+02 0.140E+04   -.105E+02 0.683E+02 -.140E+04   0.144E+00 0.286E+00 0.357E+00   -.149E-03 0.327E-04 -.193E-03
   0.223E+02 0.917E+01 0.143E+04   -.224E+02 -.873E+01 -.143E+04   -.495E-01 -.480E+00 0.390E+00   0.263E-03 0.290E-03 0.143E-03
   0.850E+01 0.102E+02 0.123E+04   -.915E+01 -.954E+01 -.123E+04   0.311E+00 -.636E+00 -.348E+00   0.211E-04 -.317E-03 0.161E-03
   -.683E+02 0.202E+02 0.120E+04   0.680E+02 -.205E+02 -.120E+04   0.275E+00 0.238E+00 -.467E+00   0.209E-03 0.314E-04 0.448E-03
   -.120E+02 0.749E+02 -.250E+04   0.119E+02 -.743E+02 0.250E+04   0.846E-01 -.694E+00 0.288E+01   0.179E-03 -.171E-04 0.143E-03
   -.207E+02 -.787E+02 0.250E+04   0.201E+02 0.785E+02 -.249E+04   0.385E+00 0.361E+00 -.262E+01   -.313E-03 0.179E-03 -.169E-03
   0.164E+02 0.263E+02 0.249E+04   -.162E+02 -.265E+02 -.249E+04   -.222E+00 -.133E-01 -.253E+01   -.134E-04 -.103E-03 0.503E-04
   0.762E+00 0.239E+02 0.497E+02   -.697E+00 -.239E+02 -.505E+02   0.815E-02 -.350E-01 0.855E+00   0.177E-03 -.159E-03 0.859E-03
   -.497E+02 0.193E+02 -.123E+04   0.494E+02 -.191E+02 0.123E+04   0.450E+00 -.225E+00 0.355E+00   -.302E-03 -.229E-03 0.433E-03
   0.423E+02 0.553E+02 0.125E+04   -.414E+02 -.554E+02 -.125E+04   -.653E+00 0.161E-01 -.446E+00   -.425E-03 -.849E-04 0.673E-03
   0.615E+02 -.233E+02 0.249E+04   -.612E+02 0.229E+02 -.249E+04   -.417E+00 0.578E+00 -.227E+01   0.356E-03 -.580E-04 -.336E-04
   -.257E+02 -.235E+02 -.721E+00   0.251E+02 0.234E+02 0.124E+01   0.543E+00 0.475E-01 -.574E+00   -.335E-03 -.862E-05 0.695E-03
   0.541E+02 0.101E+02 0.127E+04   -.534E+02 -.106E+02 -.127E+04   -.102E+01 0.493E+00 -.552E+00   -.152E-03 -.600E-03 0.314E-03
   0.989E+02 0.249E+02 -.247E+04   -.984E+02 -.246E+02 0.247E+04   -.537E+00 -.297E+00 0.226E+01   0.464E-04 -.157E-03 0.140E-03
   -.223E+02 -.210E+02 -.130E+04   0.226E+02 0.208E+02 0.130E+04   -.266E+00 0.143E+00 0.116E+00   -.242E-04 0.142E-03 0.370E-03
   0.524E+02 -.556E+02 -.251E+04   -.522E+02 0.550E+02 0.251E+04   -.239E+00 0.617E+00 0.228E+01   0.106E-03 -.346E-05 0.185E-03
 -----------------------------------------------------------------------------------------------
   0.184E+01 0.794E-01 0.467E+01   0.725E-12 -.107E-12 -.455E-12   -.184E+01 -.957E-01 -.470E+01   0.152E-03 0.217E-03 0.231E-01
 
 
 POSITION                                       TOTAL-FORCE (eV/Angst)
 -----------------------------------------------------------------------------------
      3.13804     -0.71446      8.62703         0.000399      0.022428      0.012180
      3.08445      4.58294      8.73463        -0.003363      0.024232     -0.007603
      5.33729      5.94348      2.17919        -0.012561     -0.122999     -0.726227
      0.79624      0.69417      8.74121         0.022392      0.010292      0.021723
      1.72199      7.07518      4.22891         0.198891     -0.309984      0.393317
      1.72441     -0.51438      4.37829         0.545101      0.027402     -0.105163
      5.47837      0.56089      8.50881        -0.005369     -0.006716     -0.004425
      2.42786      5.87855      6.44813         0.009221      0.010004      0.019700
      8.39891     -1.88680      4.33697         0.299846      0.137458      0.150274
      0.96886      8.43376      2.08947        -0.340805     -0.349973     -0.677878
      1.83259      7.10219     10.82656        -0.001291     -0.022000     -0.003208
      8.36786     -1.87521     10.81120         0.003633     -0.007518      0.017211
      7.67581      4.62005      2.15054        -0.305888      0.155692     -0.906105
      0.23882      9.71719      6.54349         0.017113     -0.023813     -0.012448
      4.69137      4.52124      6.46833        -0.025723      0.008121      0.000544
      3.24534     -0.53149      2.15478         0.372387      0.245889     -0.343983
      0.12720      7.07467      6.52278         0.005507     -0.006258     -0.019994
      6.84856     -1.76707      6.53579         0.009079      0.012765      0.008035
      2.33202      3.19594      6.43577         0.004165     -0.010727     -0.008399
      8.38436      3.28159      4.33020        -0.071264     -0.571970      0.309549
      3.12875      1.93888      8.65271         0.015703     -0.023622      0.003021
      8.41907      3.33941     10.92049         0.017447     -0.005802     -0.000214
      7.62273     -0.53509      2.21994         0.103842     -0.238436     -0.856810
      5.44017      3.24549      8.70351         0.017579     -0.000316      0.004736
      5.43827      5.90740      8.69941        -0.000466      0.012967      0.002978
      6.16273      4.58917      4.31165        -0.280785     -0.094240      0.292079
      7.71169      1.93413      8.69036         0.002136      0.022775      0.006382
      6.95032      5.92444      6.50257        -0.004207      0.006263      0.015551
      3.85602      3.21595      4.25425         0.290194      0.020488     -0.178459
      7.67608      4.54410      8.67239        -0.008395     -0.002509     -0.007974
      0.16663      1.99565      6.48262         0.005327     -0.004689     -0.009066
      6.16541      1.89939      4.31268         0.127907     -0.079208     -0.135303
      3.12889      2.02863      2.14859        -0.177348      0.019383      0.162893
      3.95705      0.63678     10.75427        -0.009262     -0.003141      0.012759
      6.03292      1.92924     10.80986         0.014844      0.003322     -0.007567
      0.94797      5.75399      2.22299         0.125829     -0.009511     -0.138258
      8.27971     -4.42191     10.76270         0.015937      0.010024     -0.005583
      7.60296      1.98885      2.18578         0.082003      0.187424      0.320198
      5.39388     -1.85895      2.21483         0.241936      0.085091      0.190992
      0.89057      5.78478      8.69863         0.006378     -0.014622      0.006402
      2.49914      0.67633      6.42216        -0.011614      0.006965      0.011425
      4.63800      7.21443      6.42869         0.000574     -0.008454      0.008508
      6.12032     -3.17233     10.76417         0.005726     -0.006555      0.001097
      8.42156      0.64740     10.77833         0.015667     -0.003738      0.007373
      5.39451      3.21627      2.15792         0.007297      0.092732      0.127595
      4.73688      1.89024      6.36936         0.001001     -0.001368      0.013744
      0.89681      0.81767      2.19372         0.152242     -0.214169      0.143412
      8.42283     -4.39020      4.31570        -0.004857     -0.013339     -0.141967
      3.83666      3.20750     10.82905         0.008466      0.014225      0.007436
      6.85657      0.77041      6.34040        -0.007670     -0.023152      0.009655
      6.12988     -0.58991     10.66038         0.005151      0.007721      0.005294
      5.38149     -1.96018      8.65366         0.000105      0.004547      0.010079
      6.11029      4.57816     10.79689         0.016963      0.005487     -0.002325
      7.61905     -3.10378      8.68555         0.009174     -0.008094     -0.008474
      1.61348      1.99793      4.25144         0.010548      0.006617     -0.142312
      3.14622      7.14020      8.56021         0.006874     -0.009146     -0.005442
      1.63182      4.48996     10.78049         0.002630     -0.003947      0.001052
      2.52714      8.44253      6.44809        -0.002244     -0.008940      0.007777
      7.74687     -0.63564      8.65612         0.002742     -0.004474      0.003222
      6.06588     -0.62230      4.28192        -0.437623      0.469380      0.078935
      1.70211      2.00856     10.80887        -0.001299     -0.007531     -0.003878
      0.95958      3.19781      2.15230         0.167685      0.333896      0.763544
      5.44409      0.79360      2.25196        -0.380298     -0.167702      0.480870
      6.87618      3.21584      6.50238        -0.000937     -0.002939      0.002939
      1.67910      4.48162      4.23737        -0.061493      0.572377     -0.331703
      3.94359      5.91776      4.28232        -0.210493      0.035251      0.199946
      6.16658     -3.14291      4.36168        -0.374885      0.035522     -0.349689
      8.34519      0.69007      4.32650        -0.091570     -0.108738      0.031104
      1.71214     -0.44125     10.86896         0.009309      0.006004     -0.013393
      3.11520      4.49778      2.12898        -0.207303      0.121796      0.466747
      3.19027      7.19663      2.09029         0.038980     -0.222919      0.171766
      4.59838     -0.60854      6.38932         0.015918      0.006944      0.009981
      0.83363      3.28111      8.66384         0.011155     -0.001011      0.002397
      3.98127      0.72456      4.29403         0.256338     -0.107891      0.078074
      7.69893     -3.17206      2.16819        -0.094961      0.085918      0.185077
      0.13241      4.55252      6.55537        -0.013087      0.003149      0.004843
      4.01612     -1.92955      4.26252        -0.193989      0.022966      0.344221
      4.08690     -1.90050     10.71339         0.013902     -0.008325      0.013178
      0.96187      8.34918      8.69179         0.017498     -0.019307      0.015871
      4.02340      5.66659     10.87116         0.010308      0.006274     -0.003839
 -----------------------------------------------------------------------------------
    total drift:                               -0.008399     -0.016102     -0.009278


--------------------------------------------------------------------------------------------------------



  FREE ENERGIE OF THE ION-ELECTRON SYSTEM (eV)
  ---------------------------------------------------
  free  energy   TOTEN  =      -532.59614610 eV

  energy  without entropy=     -532.62473911  energy(sigma->0) =     -532.60567711
 
 d Force = 0.1597313E-02[ 0.288E-03, 0.291E-02]  d Energy = 0.1550283E-02 0.470E-04
 d Force = 0.1547835E+03[ 0.155E+03, 0.155E+03]  d Ewald  = 0.1547835E+03-0.129E-05


--------------------------------------------------------------------------------------------------------


    POTLOK:  cpu time    0.2647: real time    0.2662


--------------------------------------------------------------------------------------------------------


 Conjugate gradient step on ions:
 trial-energy change:   -0.001550  1 .order   -0.001597   -0.002906   -0.000288
  (g-gl).g = 0.162E-02      g.g   = 0.162E-02  gl.gl    = 0.307E-02
 g(Force)  = 0.162E-02   g(Stress)= 0.000E+00 ortho     =-0.930E-05
 gamma     =   0.52668
 trial     =   1.80166
 opt step  =   2.02764  (harmonic =   2.00022) maximal distance =0.00792267
 next E    =  -532.596164   (d E  =  -0.00157)


--------------------------------------------------------------------------------------------------------


  
 reached required accuracy - stopping structural energy minimisation
     LOOP+:  cpu time  216.2515: real time  217.6808
    4ORBIT:  cpu time    0.0000: real time    0.0000
 


 total charge     
 
# of ion       s       p       d       tot
------------------------------------------
    1        0.748   0.667   8.122   9.536
    2        0.733   0.657   8.112   9.502
    3        0.755   0.490   8.109   9.354
    4        0.735   0.662   8.104   9.501
    5        0.732   0.661   8.112   9.505
    6        0.717   0.649   8.111   9.478
    7        0.732   0.634   8.116   9.482
    8        0.738   0.661   8.100   9.498
    9        0.747   0.676   8.101   9.524
   10        0.712   0.463   8.114   9.289
   11        0.725   0.416   8.083   9.223
   12        0.754   0.493   8.078   9.325
   13        0.730   0.477   8.101   9.309
   14        0.727   0.630   8.105   9.462
   15        0.718   0.614   8.105   9.437
   16        0.738   0.486   8.110   9.334
   17        0.578   0.621   8.560   9.759
   18        0.574   0.602   8.539   9.715
   19        0.560   0.582   8.548   9.691
   20        0.539   0.599   8.564   9.702
   21        0.540   0.588   8.554   9.682
   22        0.504   0.352   8.535   9.391
   23        0.559   0.452   8.537   9.548
   24        0.544   0.583   8.534   9.662
   25        0.561   0.605   8.555   9.721
   26        0.549   0.595   8.566   9.710
   27        0.556   0.586   8.552   9.694
   28        0.552   0.571   8.548   9.670
   29        0.560   0.601   8.548   9.708
   30        0.454   0.433   8.351   9.237
   31        0.470   0.442   8.356   9.268
   32        0.484   0.460   8.337   9.282
   33        0.483   0.364   8.334   9.181
   34        0.479   0.367   8.323   9.168
   35        0.451   0.312   8.323   9.086
   36        0.472   0.351   8.334   9.157
   37        0.470   0.360   8.334   9.165
   38        0.469   0.329   8.342   9.140
   39        0.485   0.377   8.356   9.218
   40        0.479   0.477   8.358   9.314
   41        0.471   0.451   8.361   9.283
   42        0.480   0.444   8.361   9.285
   43        0.492   0.386   8.325   9.203
   44        0.458   0.327   8.336   9.121
   45        0.452   0.329   8.333   9.114
   46        0.479   0.446   8.355   9.280
   47        0.472   0.369   8.336   9.177
   48        0.461   0.458   8.357   9.276
   49        0.447   0.349   7.225   8.021
   50        0.461   0.456   7.277   8.194
   51        0.456   0.366   7.241   8.063
   52        0.460   0.468   7.280   8.209
   53        0.451   0.333   7.216   8.000
   54        0.448   0.451   7.254   8.152
   55        0.453   0.460   7.253   8.167
   56        0.446   0.460   7.275   8.182
   57        0.451   0.372   7.243   8.066
   58        0.446   0.456   7.293   8.195
   59        0.456   0.469   7.271   8.196
   60        0.457   0.462   7.280   8.200
   61        0.448   0.351   7.238   8.037
   62        0.456   0.350   7.247   8.053
   63        0.464   0.355   7.233   8.052
   64        0.440   0.415   7.243   8.098
   65        0.441   0.442   7.272   8.155
   66        0.441   0.451   7.282   8.173
   67        0.445   0.467   6.180   7.091
   68        0.440   0.454   6.162   7.055
   69        0.426   0.336   6.108   6.870
   70        0.445   0.346   6.116   6.908
   71        0.452   0.381   6.150   6.983
   72        0.459   0.478   6.210   7.147
   73        0.450   0.480   6.206   7.136
   74        0.455   0.482   6.188   7.125
   75        0.445   0.367   6.126   6.938
   76        0.449   0.448   6.187   7.085
   77        0.449   0.476   6.221   7.146
   78        0.451   0.381   6.147   6.978
   79        0.434   0.452   6.157   7.043
   80        0.447   0.367   6.136   6.951
--------------------------------------------------
tot         42.244  37.535 616.253 696.033
 


 magnetization (x)
 
# of ion       s       p       d       tot
------------------------------------------
    1       -0.030  -0.064   0.395   0.301
    2       -0.023  -0.052   0.397   0.322
    3       -0.021  -0.033   0.363   0.309
    4       -0.027  -0.061   0.421   0.334
    5       -0.023  -0.046   0.399   0.330
    6       -0.022  -0.040   0.403   0.341
    7       -0.027  -0.047   0.362   0.288
    8       -0.015  -0.046   0.330   0.269
    9       -0.033  -0.075   0.450   0.342
   10       -0.008  -0.015   0.286   0.263
   11       -0.034  -0.035   0.398   0.329
   12       -0.017  -0.043   0.413   0.354
   13       -0.008  -0.021   0.329   0.300
   14       -0.016  -0.039   0.323   0.268
   15       -0.009  -0.037   0.294   0.249
   16       -0.023  -0.028   0.325   0.274
   17       -0.018  -0.047   0.287   0.222
   18       -0.027  -0.058   0.301   0.217
   19       -0.021  -0.040   0.273   0.211
   20       -0.017  -0.029   0.252   0.205
   21       -0.020  -0.042   0.276   0.215
   22       -0.021  -0.022   0.253   0.210
   23       -0.023  -0.035   0.309   0.251
   24       -0.019  -0.040   0.334   0.275
   25       -0.026  -0.051   0.296   0.220
   26       -0.016  -0.028   0.282   0.238
   27       -0.018  -0.040   0.311   0.254
   28       -0.015  -0.036   0.272   0.221
   29       -0.028  -0.051   0.333   0.255
   30       -0.014  -0.028   0.708   0.667
   31       -0.012  -0.033   0.658   0.612
   32       -0.024  -0.046   0.791   0.721
   33       -0.015  -0.033   0.741   0.694
   34       -0.026  -0.042   0.767   0.699
   35       -0.017  -0.022   0.753   0.713
   36       -0.021  -0.025   0.752   0.706
   37       -0.016  -0.023   0.724   0.685
   38       -0.009  -0.015   0.701   0.677
   39       -0.019  -0.026   0.673   0.628
   40       -0.021  -0.039   0.752   0.693
   41       -0.013  -0.030   0.657   0.614
   42       -0.022  -0.042   0.669   0.605
   43       -0.021  -0.040   0.751   0.690
   44       -0.013  -0.018   0.692   0.661
   45       -0.010  -0.018   0.737   0.709
   46       -0.019  -0.035   0.672   0.618
   47       -0.016  -0.022   0.726   0.687
   48       -0.017  -0.030   0.731   0.685
   49       -0.006  -0.029   1.877   1.842
   50       -0.008  -0.038   1.746   1.699
   51       -0.004  -0.018   1.808   1.787
   52       -0.009  -0.036   1.759   1.714
   53        0.004  -0.017   1.914   1.901
   54       -0.006  -0.026   1.809   1.777
   55       -0.004  -0.026   1.824   1.794
   56       -0.008  -0.029   1.776   1.739
   57       -0.005  -0.018   1.792   1.770
   58       -0.006  -0.026   1.673   1.641
   59       -0.013  -0.034   1.805   1.758
   60       -0.022  -0.047   1.735   1.666
   61       -0.005  -0.023   1.846   1.818
   62       -0.002  -0.020   1.827   1.805
   63        0.003  -0.016   1.836   1.824
   64        0.005  -0.015   1.820   1.809
   65       -0.013  -0.036   1.762   1.714
   66       -0.011  -0.029   1.725   1.685
   67       -0.001  -0.021   2.858   2.836
   68        0.002  -0.015   2.889   2.876
   69        0.015  -0.003   3.003   3.014
   70        0.013  -0.007   2.972   2.978
   71        0.022   0.000   2.904   2.926
   72        0.001  -0.026   2.720   2.695
   73       -0.001  -0.021   2.772   2.749
   74       -0.001  -0.021   2.806   2.784
   75        0.019   0.003   2.952   2.974
   76        0.005  -0.019   2.797   2.783
   77       -0.010  -0.030   2.756   2.715
   78        0.007  -0.012   2.904   2.898
   79        0.006  -0.007   2.891   2.890
   80        0.015  -0.010   2.943   2.948
--------------------------------------------------
tot         -0.948  -2.437  95.822  92.437
 

 total amount of memory used by VASP MPI-rank0    90178. kBytes
=======================================================================

   base      :      30000. kBytes
   nonlr-proj:      15999. kBytes
   fftplans  :       7274. kBytes
   grid      :      22246. kBytes
   one-center:        155. kBytes
   wavefun   :      14504. kBytes
 
  
  
 General timing and accounting informations for this job:
 ========================================================
  
                  Total CPU time used (sec):     5627.902
                            User time (sec):     5620.174
                          System time (sec):        7.728
                         Elapsed time (sec):     5668.467
  
                   Maximum memory used (kb):      707724.
                   Average memory used (kb):           0.
  
                          Minor page faults:      1860354
                          Major page faults:            0
                 Voluntary context switches:         4771
