ML                                      
           1
     8.992185   -5.170826    0.000383
     0.001627   10.350725    0.011959
     0.035936   -0.000658   22.880988
   Pt   Pd   Ni   Co   Fe
  13  17  15  18  17
Direct configuration=     1
   0.94239099  0.03672395  0.46845874
   0.84461145  0.11226426  0.37441658
   0.43199954  0.77686926  0.18821361
   0.85675485  0.11839410  0.09331418
   0.09871240  0.61477032  0.09254210
   0.10984141  0.61782554  0.37660090
   0.18343754  0.78804055  0.19012894
   0.10309746  0.36759448  0.37715221
   0.44150888  0.28314212  0.18861121
   0.60254192  0.36818397  0.37099934
   0.85332598  0.35961784  0.37523723
   0.60458010  0.86441589  0.08930533
   0.10168484  0.10548035  0.09586720
   0.35085434  0.36435567  0.09620584
   0.42876249  0.53578815  0.46569529
   0.93505129  0.27275914  0.46835630
   0.52270230  0.20097325  0.27988950
   0.35221798  0.37717227  0.37546853
   0.92609899  0.52765658  0.19171772
   0.92830227  0.79102608  0.19000816
   0.84322888  0.61755557  0.09590817
   0.09056179  0.11811989  0.37602885
   0.68833013  0.04253620  0.18774131
   0.35058084  0.61468367  0.09168924
   0.84057681  0.35897384  0.09655214
   0.42376128  0.27247783  0.47006870
   0.76879414  0.20730436  0.27998071
   0.35174584  0.87767122  0.09021428
   0.51470231  0.95433572  0.28363858
   0.35340908  0.11214057  0.37544752
   0.59439982  0.35881705  0.09484512
   0.18081842  0.29137813  0.18839744
   0.76194567  0.44888715  0.27989938
   0.18634107  0.03629504  0.18844793
   0.18313664  0.52364574  0.46555017
   0.01446321  0.70152707  0.28287413
   0.68427919  0.53293609  0.46567643
   0.67714954  0.53616153  0.18990162
   0.35997243  0.86640045  0.37625116
   0.52382059  0.45137615  0.27956360
   0.51638725  0.68937345  0.28377657
   0.18941330  0.78900688  0.46702073
   0.26580685  0.44772526  0.28057812
   0.84661274  0.86145177  0.37246617
   0.02226252  0.44615289  0.28098792
   0.77638600  0.95052405  0.28192006
   0.17885124  0.02530925  0.46946304
   0.94150046  0.28142744  0.18899161
   0.26319199  0.94671424  0.28030853
   0.60223179  0.61586912  0.09755711
   0.09558800  0.86289577  0.37482524
   0.43605719  0.03976170  0.18801373
   0.93205147  0.78492535  0.46556058
   0.60392403  0.10786207  0.37511024
   0.01850383  0.94904640  0.28065673
   0.42620931  0.78029913  0.46682258
   0.01603899  0.20018741  0.28011098
   0.68360404  0.28441373  0.19189495
   0.35709080  0.62644760  0.37721743
   0.35886279  0.12072047  0.09417975
   0.94164862  0.54276441  0.46607936
   0.26615004  0.70381876  0.28389443
   0.85061596  0.86542365  0.09390315
   0.59898781  0.86794067  0.37585963
   0.94801883  0.04677563  0.19068655
   0.17969260  0.52648375  0.18803420
   0.43627620  0.52992622  0.18833954
   0.68229566  0.78745102  0.46324953
   0.26440498  0.20080322  0.27944476
   0.09882160  0.36240060  0.09508004
   0.84992154  0.61642147  0.37241873
   0.10049228  0.86897349  0.09251825
   0.18197159  0.28277943  0.46756054
   0.76953245  0.68933851  0.28446951
   0.61283959  0.62355209  0.37258642
   0.67651493  0.26795762  0.46955169
   0.42776630  0.02850086  0.46869513
   0.68168427  0.02999970  0.46187766
   0.59314284  0.12111408  0.09465455
   0.68305458  0.78412128  0.18630889
Direct configuration=     2
   0.93395602  0.02081187  0.47269515
   0.83733201  0.09804825  0.37102953
   0.43199954  0.77686926  0.18821361
   0.85675485  0.11839410  0.09331418
   0.09871240  0.61477032  0.09254210
   0.10907188  0.62784497  0.37501265
   0.18343754  0.78804055  0.19012894
   0.11057770  0.37344625  0.37242723
   0.44150888  0.28314212  0.18861121
   0.60646327  0.37305940  0.37428907
   0.84731606  0.37227153  0.37584282
   0.60458010  0.86441589  0.08930533
   0.10168484  0.10548035  0.09586720
   0.35085434  0.36435567  0.09620584
   0.43555971  0.54238663  0.46938567
   0.93088255  0.28205964  0.47417028
   0.51371487  0.19929682  0.28020328
   0.35613955  0.37483817  0.37151919
   0.92609899  0.52765658  0.19171772
   0.92830227  0.79102608  0.19000816
   0.84322888  0.61755557  0.09590817
   0.10171764  0.10946286  0.37134449
   0.68833013  0.04253620  0.18774131
   0.35058084  0.61468367  0.09168924
   0.84057681  0.35897384  0.09655214
   0.42859892  0.27522227  0.47219843
   0.77567577  0.20593094  0.27873920
   0.35174584  0.87767122  0.09021428
   0.51308548  0.94338571  0.28348498
   0.34623222  0.10536854  0.37475855
   0.59439982  0.35881705  0.09484512
   0.18081842  0.29137813  0.18839744
   0.76582465  0.45416277  0.28039481
   0.18634107  0.03629504  0.18844793
   0.18488074  0.52988442  0.46741094
   0.01650863  0.70263065  0.28383932
   0.68694471  0.53518033  0.46476680
   0.67714954  0.53616153  0.18990162
   0.35863463  0.86665425  0.37645106
   0.52218631  0.45492686  0.27919443
   0.51634151  0.69098264  0.28337949
   0.18743388  0.78912476  0.46649472
   0.26668868  0.44929085  0.27973377
   0.84646134  0.85824620  0.37192070
   0.02531736  0.44941608  0.27962488
   0.77743878  0.94767395  0.28144647
   0.17789707  0.02042841  0.46832070
   0.94150046  0.28142744  0.18899161
   0.25902892  0.94639616  0.28104900
   0.60223179  0.61586912  0.09755711
   0.09464037  0.86288632  0.37477588
   0.43605719  0.03976170  0.18801373
   0.93397928  0.78293247  0.46407514
   0.59940770  0.10761688  0.37759048
   0.01963910  0.95019936  0.28143808
   0.42716286  0.78195659  0.46559498
   0.01946024  0.20129037  0.27827086
   0.68360404  0.28441373  0.19189495
   0.36066395  0.63056531  0.37549784
   0.35886279  0.12072047  0.09417975
   0.93949496  0.54436286  0.46581657
   0.26639365  0.70117338  0.28351644
   0.85061596  0.86542365  0.09390315
   0.59608971  0.86274466  0.37520965
   0.94801883  0.04677563  0.19068655
   0.17969260  0.52648375  0.18803420
   0.43627620  0.52992622  0.18833954
   0.68251507  0.78602690  0.46333258
   0.26020355  0.19915560  0.27910992
   0.09882160  0.36240060  0.09508004
   0.85376806  0.61909285  0.37385083
   0.10049228  0.86897349  0.09251825
   0.18474841  0.28253914  0.46940154
   0.76877049  0.69242308  0.28405430
   0.61046702  0.62357488  0.37263591
   0.67617306  0.27003113  0.46855741
   0.42897865  0.02539672  0.46813991
   0.67621311  0.02728356  0.46415082
   0.59314284  0.12111408  0.09465455
   0.68305458  0.78412128  0.18630889
Direct configuration=     3
   0.93362886  0.02019470  0.47285946
   0.83704966  0.09749686  0.37089816
   0.43199954  0.77686926  0.18821361
   0.85675485  0.11839410  0.09331418
   0.09871240  0.61477032  0.09254210
   0.10904204  0.62823359  0.37495104
   0.18343754  0.78804055  0.19012894
   0.11086784  0.37367322  0.37224396
   0.44150888  0.28314212  0.18861121
   0.60661537  0.37324850  0.37441667
   0.84708296  0.37276233  0.37586631
   0.60458010  0.86441589  0.08930533
   0.10168484  0.10548035  0.09586720
   0.35085434  0.36435567  0.09620584
   0.43582335  0.54264256  0.46952881
   0.93072086  0.28242037  0.47439579
   0.51336628  0.19923179  0.28021545
   0.35629165  0.37474764  0.37136601
   0.92609899  0.52765658  0.19171772
   0.92830227  0.79102608  0.19000816
   0.84322888  0.61755557  0.09590817
   0.10215034  0.10912709  0.37116280
   0.68833013  0.04253620  0.18774131
   0.35058084  0.61468367  0.09168924
   0.84057681  0.35897384  0.09655214
   0.42878655  0.27532872  0.47228104
   0.77594268  0.20587767  0.27869105
   0.35174584  0.87767122  0.09021428
   0.51302277  0.94296099  0.28347902
   0.34595385  0.10510588  0.37473183
   0.59439982  0.35881705  0.09484512
   0.18081842  0.29137813  0.18839744
   0.76597510  0.45436739  0.28041403
   0.18634107  0.03629504  0.18844793
   0.18494838  0.53012639  0.46748312
   0.01658796  0.70267345  0.28387676
   0.68704809  0.53526738  0.46473152
   0.67714954  0.53616153  0.18990162
   0.35858274  0.86666409  0.37645882
   0.52212292  0.45506458  0.27918011
   0.51633974  0.69104505  0.28336408
   0.18735710  0.78912933  0.46647432
   0.26672289  0.44935158  0.27970103
   0.84645547  0.85812187  0.37189954
   0.02543584  0.44954264  0.27957202
   0.77747961  0.94756340  0.28142810
   0.17786006  0.02023910  0.46827639
   0.94150046  0.28142744  0.18899161
   0.25886745  0.94638383  0.28107772
   0.60223179  0.61586912  0.09755711
   0.09460362  0.86288596  0.37477397
   0.43605719  0.03976170  0.18801373
   0.93405406  0.78285517  0.46401752
   0.59923253  0.10760737  0.37768668
   0.01968314  0.95024408  0.28146838
   0.42719984  0.78202088  0.46554737
   0.01959294  0.20133315  0.27819949
   0.68360404  0.28441373  0.19189495
   0.36080255  0.63072502  0.37543115
   0.35886279  0.12072047  0.09417975
   0.93941142  0.54442486  0.46580638
   0.26640310  0.70107077  0.28350178
   0.85061596  0.86542365  0.09390315
   0.59597731  0.86254313  0.37518444
   0.94801883  0.04677563  0.19068655
   0.17969260  0.52648375  0.18803420
   0.43627620  0.52992622  0.18833954
   0.68252358  0.78597166  0.46333580
   0.26004060  0.19909170  0.27909693
   0.09882160  0.36240060  0.09508004
   0.85391725  0.61919647  0.37390637
   0.10049228  0.86897349  0.09251825
   0.18485611  0.28252982  0.46947295
   0.76874094  0.69254272  0.28403819
   0.61037500  0.62357576  0.37263783
   0.67615980  0.27011156  0.46851885
   0.42902567  0.02527632  0.46811837
   0.67600090  0.02717821  0.46423898
   0.59314284  0.12111408  0.09465455
   0.68305458  0.78412128  0.18630889
Direct configuration=     4
   0.93071002  0.01906935  0.47322563
   0.84140628  0.09984928  0.37234911
   0.43199954  0.77686926  0.18821361
   0.85675485  0.11839410  0.09331418
   0.09871240  0.61477032  0.09254210
   0.10927235  0.63097737  0.37425594
   0.18343754  0.78804055  0.19012894
   0.10665329  0.37193488  0.37196718
   0.44150888  0.28314212  0.18861121
   0.60220902  0.37403965  0.37536483
   0.85267661  0.37146473  0.37589434
   0.60458010  0.86441589  0.08930533
   0.10168484  0.10548035  0.09586720
   0.35085434  0.36435567  0.09620584
   0.43830601  0.54484210  0.47084073
   0.92950862  0.28424776  0.47549610
   0.51220844  0.19692566  0.28168351
   0.35984503  0.37556498  0.37063623
   0.92609899  0.52765658  0.19171772
   0.92830227  0.79102608  0.19000816
   0.84322888  0.61755557  0.09590817
   0.09986175  0.10666475  0.37112681
   0.68833013  0.04253620  0.18774131
   0.35058084  0.61468367  0.09168924
   0.84057681  0.35897384  0.09655214
   0.43098234  0.27624173  0.47339820
   0.77682236  0.20660387  0.27917473
   0.35174584  0.87767122  0.09021428
   0.51342132  0.94042247  0.28375276
   0.34655825  0.10286767  0.37518209
   0.59439982  0.35881705  0.09484512
   0.18081842  0.29137813  0.18839744
   0.76713133  0.45688231  0.28107371
   0.18634107  0.03629504  0.18844793
   0.18592985  0.53435799  0.46756385
   0.01780172  0.70407938  0.28418822
   0.68984304  0.53855912  0.46464684
   0.67714954  0.53616153  0.18990162
   0.35783227  0.86736369  0.37644092
   0.52177035  0.45813584  0.27886891
   0.51655669  0.69223236  0.28268766
   0.18555915  0.78877190  0.46612515
   0.26847426  0.45159972  0.27819133
   0.84665374  0.85448361  0.37155756
   0.02742952  0.45209859  0.27847848
   0.77783500  0.94310962  0.28001168
   0.17730192  0.01707113  0.46718344
   0.94150046  0.28142744  0.18899161
   0.25577773  0.94544502  0.28138945
   0.60223179  0.61586912  0.09755711
   0.09336637  0.86251619  0.37463081
   0.43605719  0.03976170  0.18801373
   0.93582977  0.77928535  0.46273937
   0.59706622  0.10772235  0.37941586
   0.01998039  0.94960998  0.28123348
   0.42796606  0.78317968  0.46454284
   0.02268201  0.20238797  0.27701963
   0.68360404  0.28441373  0.19189495
   0.36280400  0.63222047  0.37439009
   0.35886279  0.12072047  0.09417975
   0.93879563  0.54666037  0.46589809
   0.26626249  0.69809295  0.28291762
   0.85061596  0.86542365  0.09390315
   0.59258440  0.85741584  0.37492989
   0.94801883  0.04677563  0.19068655
   0.17969260  0.52648375  0.18803420
   0.43627620  0.52992622  0.18833954
   0.68251461  0.78440894  0.46337853
   0.25719095  0.19812601  0.27796953
   0.09882160  0.36240060  0.09508004
   0.85622392  0.62379062  0.37483030
   0.10049228  0.86897349  0.09251825
   0.18354630  0.28122011  0.46966359
   0.76787069  0.69512730  0.28366590
   0.60797573  0.62331972  0.37269029
   0.67598496  0.27195796  0.46777896
   0.42961814  0.02330675  0.46747435
   0.67400477  0.02616526  0.46534020
   0.59314284  0.12111408  0.09465455
   0.68305458  0.78412128  0.18630889
Direct configuration=     5
   0.93004137  0.01881156  0.47330951
   0.84240431  0.10038818  0.37268150
   0.43199954  0.77686926  0.18821361
   0.85675485  0.11839410  0.09331418
   0.09871240  0.61477032  0.09254210
   0.10932511  0.63160592  0.37409670
   0.18343754  0.78804055  0.19012894
   0.10568782  0.37153666  0.37190377
   0.44150888  0.28314212  0.18861121
   0.60119960  0.37422089  0.37558204
   0.85395802  0.37116748  0.37590077
   0.60458010  0.86441589  0.08930533
   0.10168484  0.10548035  0.09586720
   0.35085434  0.36435567  0.09620584
   0.43887474  0.54534597  0.47114126
   0.92923092  0.28466638  0.47574817
   0.51194320  0.19639736  0.28201982
   0.36065905  0.37575222  0.37046905
   0.92609899  0.52765658  0.19171772
   0.92830227  0.79102608  0.19000816
   0.84322888  0.61755557  0.09590817
   0.09933748  0.10610068  0.37111857
   0.68833013  0.04253620  0.18774131
   0.35058084  0.61468367  0.09168924
   0.84057681  0.35897384  0.09655214
   0.43148536  0.27645088  0.47365412
   0.77702387  0.20677023  0.27928553
   0.35174584  0.87767122  0.09021428
   0.51351262  0.93984094  0.28381546
   0.34669671  0.10235493  0.37528524
   0.59439982  0.35881705  0.09484512
   0.18081842  0.29137813  0.18839744
   0.76739620  0.45745844  0.28122483
   0.18634107  0.03629504  0.18844793
   0.18615469  0.53532738  0.46758235
   0.01807977  0.70440145  0.28425957
   0.69048331  0.53931320  0.46462744
   0.67714954  0.53616153  0.18990162
   0.35766035  0.86752395  0.37643682
   0.52168959  0.45883942  0.27879762
   0.51660638  0.69250435  0.28253270
   0.18514727  0.78869002  0.46604516
   0.26887547  0.45211473  0.27784548
   0.84669916  0.85365014  0.37147921
   0.02788623  0.45268411  0.27822797
   0.77791641  0.94208934  0.27968720
   0.17717406  0.01634540  0.46693306
   0.94150046  0.28142744  0.18899161
   0.25506993  0.94522996  0.28146086
   0.60223179  0.61586912  0.09755711
   0.09308294  0.86243148  0.37459801
   0.43605719  0.03976170  0.18801373
   0.93623655  0.77846756  0.46244656
   0.59656996  0.10774870  0.37981198
   0.02004849  0.94946472  0.28117967
   0.42814159  0.78344514  0.46431273
   0.02338967  0.20262961  0.27674935
   0.68360404  0.28441373  0.19189495
   0.36326250  0.63256305  0.37415161
   0.35886279  0.12072047  0.09417975
   0.93865456  0.54717248  0.46591910
   0.26623027  0.69741079  0.28278380
   0.85061596  0.86542365  0.09390315
   0.59180714  0.85624127  0.37487157
   0.94801883  0.04677563  0.19068655
   0.17969260  0.52648375  0.18803420
   0.43627620  0.52992622  0.18833954
   0.68251256  0.78405095  0.46338832
   0.25653814  0.19790478  0.27771126
   0.09882160  0.36240060  0.09508004
   0.85675234  0.62484305  0.37504196
   0.10049228  0.86897349  0.09251825
   0.18324625  0.28092007  0.46970726
   0.76767133  0.69571938  0.28358062
   0.60742609  0.62326107  0.37270231
   0.67594491  0.27238094  0.46760947
   0.42975386  0.02285556  0.46732682
   0.67354749  0.02593321  0.46559247
   0.59314284  0.12111408  0.09465455
   0.68305458  0.78412128  0.18630889
Direct configuration=     6
   0.92885583  0.01909028  0.47303763
   0.84235997  0.09972995  0.37399257
   0.43199954  0.77686926  0.18821361
   0.85675485  0.11839410  0.09331418
   0.09871240  0.61477032  0.09254210
   0.11020264  0.63100747  0.37368147
   0.18343754  0.78804055  0.19012894
   0.10746667  0.37086181  0.37230702
   0.44150888  0.28314212  0.18861121
   0.60601697  0.37483637  0.37570904
   0.85205724  0.37014103  0.37586461
   0.60458010  0.86441589  0.08930533
   0.10168484  0.10548035  0.09586720
   0.35085434  0.36435567  0.09620584
   0.43903264  0.54569382  0.47174405
   0.92867415  0.28507383  0.47646063
   0.51275729  0.19549782  0.28273452
   0.35590096  0.37554516  0.37060051
   0.92609899  0.52765658  0.19171772
   0.92830227  0.79102608  0.19000816
   0.84322888  0.61755557  0.09590817
   0.09786847  0.10648602  0.37184109
   0.68833013  0.04253620  0.18774131
   0.35058084  0.61468367  0.09168924
   0.84057681  0.35897384  0.09655214
   0.43201869  0.27635158  0.47466215
   0.77659074  0.20667832  0.28012829
   0.35174584  0.87767122  0.09021428
   0.51465893  0.94021346  0.28425974
   0.34644307  0.10212481  0.37611483
   0.59439982  0.35881705  0.09484512
   0.18081842  0.29137813  0.18839744
   0.76755845  0.45905595  0.28232369
   0.18634107  0.03629504  0.18844793
   0.18714257  0.53913156  0.46701057
   0.01821909  0.70536334  0.28403795
   0.69333214  0.54287144  0.46478636
   0.67714954  0.53616153  0.18990162
   0.35719144  0.86751892  0.37618846
   0.52205788  0.46116900  0.27832440
   0.51710893  0.69347050  0.28171846
   0.18377151  0.78784543  0.46575483
   0.27031593  0.45394322  0.27685524
   0.84693585  0.85182271  0.37129954
   0.02939285  0.45468843  0.27733046
   0.77849922  0.93899273  0.27898772
   0.17635279  0.01410543  0.46597901
   0.94150046  0.28142744  0.18899161
   0.25316320  0.94451611  0.28167335
   0.60223179  0.61586912  0.09755711
   0.09270334  0.86321062  0.37416008
   0.43605719  0.03976170  0.18801373
   0.93764608  0.77655417  0.46173446
   0.59717155  0.10787951  0.38120483
   0.02028155  0.94860131  0.28078483
   0.42864326  0.78388457  0.46345574
   0.02574751  0.20358921  0.27591476
   0.68360404  0.28441373  0.19189495
   0.36308068  0.63170871  0.37330918
   0.35886279  0.12072047  0.09417975
   0.93873465  0.54892523  0.46586617
   0.26622426  0.69479547  0.28217894
   0.85061596  0.86542365  0.09390315
   0.59160035  0.85489896  0.37473763
   0.94801883  0.04677563  0.19068655
   0.17969260  0.52648375  0.18803420
   0.43627620  0.52992622  0.18833954
   0.68315454  0.78283540  0.46343199
   0.25451577  0.19722155  0.27679365
   0.09882160  0.36240060  0.09508004
   0.85697521  0.62593833  0.37546804
   0.10049228  0.86897349  0.09251825
   0.18154258  0.27992438  0.46932253
   0.76656195  0.69743893  0.28313428
   0.60524273  0.62317476  0.37268603
   0.67639372  0.27474796  0.46687950
   0.42989406  0.02148392  0.46697431
   0.67268284  0.02526927  0.46618897
   0.59314284  0.12111408  0.09465455
   0.68305458  0.78412128  0.18630889
Direct configuration=     7
   0.92881500  0.01909988  0.47302827
   0.84235844  0.09970728  0.37403772
   0.43199954  0.77686926  0.18821361
   0.85675485  0.11839410  0.09331418
   0.09871240  0.61477032  0.09254210
   0.11023286  0.63098686  0.37366717
   0.18343754  0.78804055  0.19012894
   0.10752793  0.37083857  0.37232091
   0.44150888  0.28314212  0.18861121
   0.60618289  0.37485757  0.37571342
   0.85199177  0.37010568  0.37586336
   0.60458010  0.86441589  0.08930533
   0.10168484  0.10548035  0.09586720
   0.35085434  0.36435567  0.09620584
   0.43903807  0.54570580  0.47176481
   0.92865497  0.28508786  0.47648516
   0.51278533  0.19546684  0.28275914
   0.35573709  0.37553802  0.37060504
   0.92609899  0.52765658  0.19171772
   0.92830227  0.79102608  0.19000816
   0.84322888  0.61755557  0.09590817
   0.09781788  0.10649930  0.37186597
   0.68833013  0.04253620  0.18774131
   0.35058084  0.61468367  0.09168924
   0.84057681  0.35897384  0.09655214
   0.43203706  0.27634816  0.47469687
   0.77657583  0.20667516  0.28015732
   0.35174584  0.87767122  0.09021428
   0.51469841  0.94022629  0.28427504
   0.34643433  0.10211688  0.37614340
   0.59439982  0.35881705  0.09484512
   0.18081842  0.29137813  0.18839744
   0.76756404  0.45911097  0.28236153
   0.18634107  0.03629504  0.18844793
   0.18717659  0.53926258  0.46699088
   0.01822389  0.70539647  0.28403032
   0.69343025  0.54299399  0.46479183
   0.67714954  0.53616153  0.18990162
   0.35717529  0.86751875  0.37617991
   0.52207056  0.46124923  0.27830810
   0.51712624  0.69350378  0.28169041
   0.18372412  0.78781635  0.46574483
   0.27036554  0.45400620  0.27682114
   0.84694400  0.85175978  0.37129335
   0.02944473  0.45475746  0.27729955
   0.77851929  0.93888608  0.27896363
   0.17632450  0.01402829  0.46594615
   0.94150046  0.28142744  0.18899161
   0.25309754  0.94449152  0.28168066
   0.60223179  0.61586912  0.09755711
   0.09269027  0.86323745  0.37414500
   0.43605719  0.03976170  0.18801373
   0.93769462  0.77648827  0.46170993
   0.59719227  0.10788402  0.38125280
   0.02028957  0.94857157  0.28077123
   0.42866053  0.78389970  0.46342622
   0.02582871  0.20362226  0.27588601
   0.68360404  0.28441373  0.19189495
   0.36307442  0.63167929  0.37328017
   0.35886279  0.12072047  0.09417975
   0.93873741  0.54898560  0.46586435
   0.26622405  0.69470540  0.28215811
   0.85061596  0.86542365  0.09390315
   0.59159323  0.85485274  0.37473301
   0.94801883  0.04677563  0.19068655
   0.17969260  0.52648375  0.18803420
   0.43627620  0.52992622  0.18833954
   0.68317665  0.78279353  0.46343349
   0.25444612  0.19719802  0.27676204
   0.09882160  0.36240060  0.09508004
   0.85698289  0.62597605  0.37548271
   0.10049228  0.86897349  0.09251825
   0.18148391  0.27989009  0.46930928
   0.76652374  0.69749815  0.28311891
   0.60516754  0.62317179  0.37268547
   0.67640918  0.27482948  0.46685436
   0.42989889  0.02143668  0.46696217
   0.67265306  0.02524640  0.46620951
   0.59314284  0.12111408  0.09465455
   0.68305458  0.78412128  0.18630889
Direct configuration=     8
   0.92895396  0.01887486  0.47290795
   0.83979053  0.09786631  0.37425160
   0.43199954  0.77686926  0.18821361
   0.85675485  0.11839410  0.09331418
   0.09871240  0.61477032  0.09254210
   0.10988224  0.62886174  0.37328463
   0.18343754  0.78804055  0.19012894
   0.10709352  0.37144084  0.37253174
   0.44150888  0.28314212  0.18861121
   0.60575665  0.37565421  0.37565444
   0.85266728  0.37053928  0.37603202
   0.60458010  0.86441589  0.08930533
   0.10168484  0.10548035  0.09586720
   0.35085434  0.36435567  0.09620584
   0.43805168  0.54496185  0.47180887
   0.92853823  0.28526942  0.47675940
   0.51309451  0.19592481  0.28270580
   0.35617376  0.37500825  0.37093864
   0.92609899  0.52765658  0.19171772
   0.92830227  0.79102608  0.19000816
   0.84322888  0.61755557  0.09590817
   0.09764670  0.10681272  0.37212503
   0.68833013  0.04253620  0.18774131
   0.35058084  0.61468367  0.09168924
   0.84057681  0.35897384  0.09655214
   0.43184304  0.27606819  0.47502886
   0.77683435  0.20599175  0.28059810
   0.35174584  0.87767122  0.09021428
   0.51541467  0.94122374  0.28454780
   0.34611965  0.10377604  0.37653456
   0.59439982  0.35881705  0.09484512
   0.18081842  0.29137813  0.18839744
   0.76770160  0.46003075  0.28283108
   0.18634107  0.03629504  0.18844793
   0.18768751  0.54151792  0.46637242
   0.01761144  0.70536635  0.28375153
   0.69472168  0.54508317  0.46495062
   0.67714954  0.53616153  0.18990162
   0.35697789  0.86718423  0.37583497
   0.52224350  0.46161409  0.27833798
   0.51772207  0.69422262  0.28115375
   0.18329850  0.78695378  0.46547010
   0.27107116  0.45472505  0.27649554
   0.84695987  0.85186247  0.37126450
   0.02972285  0.45492643  0.27721491
   0.77907536  0.93816972  0.27899404
   0.17550326  0.01310608  0.46552906
   0.94150046  0.28142744  0.18899161
   0.25310079  0.94462610  0.28181967
   0.60223179  0.61586912  0.09755711
   0.09334695  0.86409510  0.37357695
   0.43605719  0.03976170  0.18801373
   0.93848119  0.77710903  0.46173405
   0.59826143  0.10747361  0.38185910
   0.02065713  0.94848894  0.28073277
   0.42903181  0.78375209  0.46291067
   0.02635207  0.20427133  0.27579594
   0.68360404  0.28441373  0.19189495
   0.36215746  0.63058115  0.37272558
   0.35886279  0.12072047  0.09417975
   0.93936205  0.54940320  0.46573522
   0.26666643  0.69388946  0.28175618
   0.85061596  0.86542365  0.09390315
   0.59279410  0.85564507  0.37465589
   0.94801883  0.04677563  0.19068655
   0.17969260  0.52648375  0.18803420
   0.43627620  0.52992622  0.18833954
   0.68406115  0.78211272  0.46345839
   0.25400738  0.19687288  0.27658095
   0.09882160  0.36240060  0.09508004
   0.85658892  0.62493869  0.37523593
   0.10049228  0.86897349  0.09251825
   0.18044290  0.27952961  0.46891675
   0.76558522  0.69781600  0.28280802
   0.60342134  0.62208199  0.37268982
   0.67702154  0.27651927  0.46674027
   0.42963593  0.02083888  0.46702458
   0.67258871  0.02486241  0.46657682
   0.59314284  0.12111408  0.09465455
   0.68305458  0.78412128  0.18630889
Direct configuration=     9
   0.92902287  0.01876328  0.47284828
   0.83851719  0.09695343  0.37435766
   0.43199954  0.77686926  0.18821361
   0.85675485  0.11839410  0.09331418
   0.09871240  0.61477032  0.09254210
   0.10970839  0.62780796  0.37309495
   0.18343754  0.78804055  0.19012894
   0.10687811  0.37173948  0.37263629
   0.44150888  0.28314212  0.18861121
   0.60554530  0.37604923  0.37562519
   0.85300224  0.37075428  0.37611565
   0.60458010  0.86441589  0.08930533
   0.10168484  0.10548035  0.09586720
   0.35085434  0.36435567  0.09620584
   0.43756256  0.54459295  0.47183072
   0.92848034  0.28535944  0.47689538
   0.51324782  0.19615190  0.28267936
   0.35639029  0.37474556  0.37110405
   0.92609899  0.52765658  0.19171772
   0.92830227  0.79102608  0.19000816
   0.84322888  0.61755557  0.09590817
   0.09756181  0.10696814  0.37225349
   0.68833013  0.04253620  0.18774131
   0.35058084  0.61468367  0.09168924
   0.84057681  0.35897384  0.09655214
   0.43174684  0.27592935  0.47519348
   0.77696254  0.20565287  0.28081666
   0.35174584  0.87767122  0.09021428
   0.51576985  0.94171834  0.28468305
   0.34596361  0.10459877  0.37672852
   0.59439982  0.35881705  0.09484512
   0.18081842  0.29137813  0.18839744
   0.76776981  0.46048684  0.28306392
   0.18634107  0.03629504  0.18844793
   0.18794086  0.54263627  0.46606575
   0.01730775  0.70535142  0.28361328
   0.69536205  0.54611912  0.46502935
   0.67714954  0.53616153  0.18990162
   0.35688001  0.86701835  0.37566392
   0.52232926  0.46179502  0.27835279
   0.51801752  0.69457907  0.28088764
   0.18308744  0.78652607  0.46533387
   0.27142105  0.45508150  0.27633409
   0.84696773  0.85191339  0.37125020
   0.02986076  0.45501021  0.27717294
   0.77935110  0.93781450  0.27900912
   0.17509604  0.01264879  0.46532223
   0.94150046  0.28142744  0.18899161
   0.25310241  0.94469283  0.28188860
   0.60223179  0.61586912  0.09755711
   0.09367258  0.86452038  0.37329527
   0.43605719  0.03976170  0.18801373
   0.93887122  0.77741684  0.46174601
   0.59879159  0.10727010  0.38215974
   0.02083939  0.94844796  0.28071370
   0.42921591  0.78367890  0.46265502
   0.02661159  0.20459318  0.27575127
   0.68360404  0.28441373  0.19189495
   0.36170277  0.63003663  0.37245058
   0.35886279  0.12072047  0.09417975
   0.93967179  0.54961028  0.46567119
   0.26688579  0.69348487  0.28155687
   0.85061596  0.86542365  0.09390315
   0.59338958  0.85603796  0.37461764
   0.94801883  0.04677563  0.19068655
   0.17969260  0.52648375  0.18803420
   0.43627620  0.52992622  0.18833954
   0.68449974  0.78177513  0.46347073
   0.25378982  0.19671165  0.27649115
   0.09882160  0.36240060  0.09508004
   0.85639357  0.62442430  0.37511356
   0.10049228  0.86897349  0.09251825
   0.17992669  0.27935085  0.46872211
   0.76511984  0.69797362  0.28265385
   0.60255545  0.62154160  0.37269197
   0.67732519  0.27735718  0.46668369
   0.42950553  0.02054245  0.46705552
   0.67255681  0.02467200  0.46675896
   0.59314284  0.12111408  0.09465455
   0.68305458  0.78412128  0.18630889
Direct configuration=    10
   0.92936325  0.01857308  0.47289743
   0.83833159  0.09650425  0.37440765
   0.43199954  0.77686926  0.18821361
   0.85675485  0.11839410  0.09331418
   0.09871240  0.61477032  0.09254210
   0.10945959  0.62874834  0.37237299
   0.18343754  0.78804055  0.19012894
   0.10673317  0.37051802  0.37259982
   0.44150888  0.28314212  0.18861121
   0.60508450  0.37640330  0.37575765
   0.85204803  0.37018738  0.37630057
   0.60458010  0.86441589  0.08930533
   0.10168484  0.10548035  0.09586720
   0.35085434  0.36435567  0.09620584
   0.43644425  0.54385090  0.47168824
   0.92844544  0.28542836  0.47706679
   0.51337650  0.19694195  0.28268710
   0.35611037  0.37429227  0.37121604
   0.92609899  0.52765658  0.19171772
   0.92830227  0.79102608  0.19000816
   0.84322888  0.61755557  0.09590817
   0.09660508  0.10738884  0.37205995
   0.68833013  0.04253620  0.18774131
   0.35058084  0.61468367  0.09168924
   0.84057681  0.35897384  0.09655214
   0.43146603  0.27562318  0.47544673
   0.77747916  0.20550798  0.28085787
   0.35174584  0.87767122  0.09021428
   0.51594636  0.94227842  0.28468845
   0.34681969  0.10570133  0.37675068
   0.59439982  0.35881705  0.09484512
   0.18081842  0.29137813  0.18839744
   0.76802482  0.46091927  0.28309591
   0.18634107  0.03629504  0.18844793
   0.18836209  0.54429623  0.46561513
   0.01673704  0.70504200  0.28344677
   0.69612344  0.54756642  0.46508211
   0.67714954  0.53616153  0.18990162
   0.35642411  0.86693330  0.37531507
   0.52225960  0.46158024  0.27849407
   0.51867016  0.69527306  0.28057753
   0.18308945  0.78581915  0.46483701
   0.27184833  0.45500166  0.27643381
   0.84667495  0.85160108  0.37124548
   0.02956070  0.45437107  0.27725768
   0.77998472  0.93813269  0.27915353
   0.17443794  0.01205610  0.46514920
   0.94150046  0.28142744  0.18899161
   0.25388542  0.94514990  0.28204704
   0.60223179  0.61586912  0.09755711
   0.09439379  0.86417282  0.37267849
   0.43605719  0.03976170  0.18801373
   0.93953104  0.77841719  0.46175735
   0.59847475  0.10702119  0.38250005
   0.02130817  0.94881655  0.28082732
   0.42978353  0.78355849  0.46215102