       N       E                     dE             d eps       ncg     rms          rms(c)
DAV:   1     0.672993379040E+04    0.67299E+04   -0.31393E+05  2096   0.144E+03
DAV:   2     0.377166584105E+03   -0.63528E+04   -0.58058E+04  2096   0.353E+02
DAV:   3    -0.478336713582E+03   -0.85550E+03   -0.69978E+03  2264   0.155E+02
DAV:   4    -0.547756190204E+03   -0.69419E+02   -0.65832E+02  2328   0.459E+01
DAV:   5    -0.549472810974E+03   -0.17166E+01   -0.17100E+01  2392   0.755E+00    0.102E+02
RMM:   6    -0.703750049734E+03   -0.15428E+03   -0.89732E+02  2100   0.701E+01    0.181E+02
RMM:   7    -0.511621521290E+03    0.19213E+03   -0.24512E+02  2102   0.324E+01    0.915E+01
RMM:   8    -0.724930224495E+03   -0.21331E+03   -0.20525E+02  2098   0.270E+01    0.193E+02
RMM:   9    -0.636760475524E+03    0.88170E+02   -0.98710E+01  2098   0.205E+01    0.171E+02
RMM:  10    -0.536403278555E+03    0.10036E+03   -0.11506E+02  2099   0.231E+01    0.120E+02
RMM:  11    -0.480303776505E+03    0.56100E+02   -0.82704E+01  2105   0.197E+01    0.984E+01
RMM:  12    -0.492511143256E+03   -0.12207E+02   -0.85826E+01  2102   0.202E+01    0.116E+02
RMM:  13    -0.464750421784E+03    0.27761E+02   -0.51879E+01  2101   0.162E+01    0.872E+01
RMM:  14    -0.445628807577E+03    0.19122E+02   -0.28051E+01  2101   0.117E+01    0.482E+01
RMM:  15    -0.451294195998E+03   -0.56654E+01   -0.15128E+01  2105   0.816E+00    0.537E+01
RMM:  16    -0.450418839047E+03    0.87536E+00   -0.12243E+01  2103   0.771E+00    0.397E+01
RMM:  17    -0.451561861183E+03   -0.11430E+01   -0.49183E+00  2103   0.468E+00    0.384E+01
RMM:  18    -0.454063833561E+03   -0.25020E+01   -0.45073E+00  2101   0.449E+00    0.344E+01
RMM:  19    -0.459865907078E+03   -0.58021E+01   -0.57157E+00  2104   0.453E+00    0.307E+01
RMM:  20    -0.464603997280E+03   -0.47381E+01   -0.38040E+00  2101   0.373E+00    0.273E+01
RMM:  21    -0.470559133595E+03   -0.59551E+01   -0.42251E+00  2100   0.374E+00    0.252E+01
RMM:  22    -0.473363503874E+03   -0.28044E+01   -0.22648E+00  2101   0.291E+00    0.233E+01
RMM:  23    -0.478535448959E+03   -0.51719E+01   -0.32158E+00  2102   0.312E+00    0.253E+01
RMM:  24    -0.481348532159E+03   -0.28131E+01   -0.23886E+00  2101   0.274E+00    0.225E+01
RMM:  25    -0.484465740857E+03   -0.31172E+01   -0.22831E+00  2100   0.249E+00    0.216E+01
RMM:  26    -0.486456491028E+03   -0.19908E+01   -0.16289E+00  2100   0.221E+00    0.193E+01
RMM:  27    -0.488523790153E+03   -0.20673E+01   -0.15583E+00  2100   0.201E+00    0.173E+01
RMM:  28    -0.489776225347E+03   -0.12524E+01   -0.12788E+00  2100   0.201E+00    0.165E+01
RMM:  29    -0.491415960123E+03   -0.16397E+01   -0.15295E+00  2099   0.201E+00    0.142E+01
RMM:  30    -0.491689996513E+03   -0.27404E+00   -0.62048E-01  2101   0.147E+00    0.102E+01
RMM:  31    -0.492120408561E+03   -0.43041E+00   -0.16080E-01  2102   0.720E-01    0.970E+00
RMM:  32    -0.492256061596E+03   -0.13565E+00   -0.62999E-02  2100   0.482E-01    0.936E+00
RMM:  33    -0.492415193864E+03   -0.15913E+00   -0.10679E-01  2100   0.606E-01    0.885E+00
RMM:  34    -0.492786266069E+03   -0.37107E+00   -0.24325E-01  2099   0.874E-01    0.764E+00
RMM:  35    -0.493082900481E+03   -0.29663E+00   -0.17736E-01  2099   0.758E-01    0.680E+00
RMM:  36    -0.493610624906E+03   -0.52772E+00   -0.23998E-01  2099   0.787E-01    0.663E+00
RMM:  37    -0.493958607264E+03   -0.34798E+00   -0.15161E-01  2100   0.702E-01    0.594E+00
RMM:  38    -0.494235410569E+03   -0.27680E+00   -0.11706E-01  2099   0.578E-01    0.484E+00
RMM:  39    -0.494345554122E+03   -0.11014E+00   -0.51845E-02  2100   0.429E-01    0.455E+00
RMM:  40    -0.494471959597E+03   -0.12641E+00   -0.35708E-02  2100   0.341E-01    0.456E+00
RMM:  41    -0.494552499616E+03   -0.80540E-01   -0.32260E-02  2100   0.344E-01    0.448E+00
RMM:  42    -0.494723412237E+03   -0.17091E+00   -0.49845E-02  2100   0.377E-01    0.395E+00
RMM:  43    -0.494827179197E+03   -0.10377E+00   -0.53534E-02  2100   0.435E-01    0.369E+00
RMM:  44    -0.494923084995E+03   -0.95906E-01   -0.40104E-02  2100   0.369E-01    0.314E+00
RMM:  45    -0.494947716697E+03   -0.24632E-01   -0.20749E-02  2100   0.289E-01    0.278E+00
RMM:  46    -0.494986838781E+03   -0.39122E-01   -0.14752E-02  2100   0.230E-01    0.262E+00
RMM:  47    -0.495013566472E+03   -0.26728E-01   -0.13581E-02  2100   0.225E-01    0.215E+00
RMM:  48    -0.495058597836E+03   -0.45031E-01   -0.20931E-02  2100   0.257E-01    0.221E+00
RMM:  49    -0.495065660764E+03   -0.70629E-02   -0.10933E-02  2100   0.195E-01    0.144E+00
RMM:  50    -0.495082083415E+03   -0.16423E-01   -0.94260E-03  2100   0.180E-01    0.162E+00
RMM:  51    -0.495114475386E+03   -0.32392E-01   -0.16852E-02  2100   0.233E-01    0.147E+00
RMM:  52    -0.495103674015E+03    0.10801E-01   -0.89396E-03  2100   0.179E-01    0.141E+00
RMM:  53    -0.495100838645E+03    0.28354E-02   -0.51589E-03  2101   0.139E-01    0.833E-01
RMM:  54    -0.495121642023E+03   -0.20803E-01   -0.35161E-03  2100   0.110E-01    0.817E-01
RMM:  55    -0.495150223886E+03   -0.28582E-01   -0.31875E-03  2100   0.108E-01    0.627E-01
RMM:  56    -0.495195605459E+03   -0.45382E-01   -0.46285E-03  2100   0.127E-01    0.957E-01
RMM:  57    -0.495203372152E+03   -0.77667E-02   -0.18058E-03  2100   0.878E-02    0.665E-01
RMM:  58    -0.495214456719E+03   -0.11085E-01   -0.13025E-03  2099   0.710E-02    0.571E-01
RMM:  59    -0.495229570664E+03   -0.15114E-01   -0.12144E-03  2100   0.669E-02    0.458E-01
RMM:  60    -0.495255663709E+03   -0.26093E-01   -0.89103E-04  2100   0.525E-02    0.381E-01
RMM:  61    -0.495230136516E+03    0.25527E-01   -0.19491E-03  2100   0.882E-02    0.801E-01
RMM:  62    -0.495272515354E+03   -0.42379E-01   -0.13304E-03  2100   0.718E-02    0.292E-01
RMM:  63    -0.495287633309E+03   -0.15118E-01   -0.34155E-04  2100   0.344E-02    0.190E-01
RMM:  64    -0.495305770664E+03   -0.18137E-01   -0.24351E-04  2100   0.270E-02    0.166E-01
RMM:  65    -0.495335058307E+03   -0.29288E-01   -0.27939E-04  2100   0.244E-02    0.167E-01
RMM:  66    -0.495342607069E+03   -0.75488E-02   -0.12875E-04  2099   0.205E-02    0.134E-01
RMM:  67    -0.495378008620E+03   -0.35402E-01   -0.45473E-04  2099   0.252E-02    0.160E-01
RMM:  68    -0.495416603912E+03   -0.38595E-01   -0.70764E-04  2100   0.268E-02    0.141E-01
RMM:  69    -0.495435771726E+03   -0.19168E-01   -0.29982E-04  2100   0.211E-02    0.142E-01
RMM:  70    -0.495459564048E+03   -0.23792E-01   -0.47144E-04  2100   0.212E-02    0.921E-02
RMM:  71    -0.495467174672E+03   -0.76106E-02   -0.13771E-04  2098   0.159E-02    0.115E-01
RMM:  72    -0.495475491351E+03   -0.83167E-02   -0.21824E-04  2097   0.165E-02    0.763E-02
RMM:  73    -0.495480020811E+03   -0.45295E-02   -0.12038E-04  2098   0.116E-02    0.681E-02
RMM:  74    -0.495483081708E+03   -0.30609E-02   -0.75044E-05  2097   0.103E-02    0.487E-02
RMM:  75    -0.495485130022E+03   -0.20483E-02   -0.47607E-05  2095   0.886E-03    0.520E-02
RMM:  76    -0.495485897092E+03   -0.76707E-03   -0.27879E-05  2043   0.782E-03    0.438E-02
RMM:  77    -0.495486181063E+03   -0.28397E-03   -0.16228E-05  1892   0.586E-03    0.260E-02
RMM:  78    -0.495486258887E+03   -0.77824E-04   -0.99494E-06  1759   0.407E-03    0.210E-02
RMM:  79    -0.495486260811E+03   -0.19239E-05   -0.86170E-06  1694   0.373E-03    0.171E-02
RMM:  80    -0.495486262654E+03   -0.18426E-05   -0.28574E-06  1420   0.277E-03    0.166E-02
RMM:  81    -0.495486226583E+03    0.36071E-04   -0.28911E-06  1475   0.299E-03    0.152E-02
RMM:  82    -0.495486241354E+03   -0.14771E-04   -0.12257E-06  1239   0.255E-03    0.108E-02
RMM:  83    -0.495486203215E+03    0.38139E-04   -0.11852E-06  1327   0.186E-03    0.921E-03
RMM:  84    -0.495486213530E+03   -0.10315E-04   -0.69069E-07  1236   0.158E-03    0.104E-02
RMM:  85    -0.495486219074E+03   -0.55440E-05   -0.80072E-07  1270   0.149E-03    0.874E-03
RMM:  86    -0.495486151873E+03    0.67201E-04   -0.59255E-07  1233   0.152E-03    0.960E-03
RMM:  87    -0.495486276646E+03   -0.12477E-03   -0.70032E-07  1250   0.147E-03    0.785E-03
RMM:  88    -0.495486389807E+03   -0.11316E-03   -0.61831E-07  1244   0.120E-03    0.629E-03
RMM:  89    -0.495486455294E+03   -0.65487E-04   -0.71604E-07  1286   0.106E-03    0.517E-03
RMM:  90    -0.495486515685E+03   -0.60391E-04   -0.48972E-07  1224   0.100E-03    0.397E-03
RMM:  91    -0.495486566154E+03   -0.50469E-04   -0.51798E-07  1241   0.924E-04    0.546E-03
RMM:  92    -0.495486597760E+03   -0.31606E-04   -0.27420E-07  1152   0.879E-04    0.288E-03
RMM:  93    -0.495486631193E+03   -0.33434E-04   -0.26480E-07  1107   0.632E-04    0.238E-03
RMM:  94    -0.495486660565E+03   -0.29371E-04   -0.26055E-07  1092   0.613E-04    0.230E-03
RMM:  95    -0.495486673404E+03   -0.12840E-04   -0.12247E-07   976   0.513E-04    0.166E-03
RMM:  96    -0.495486687774E+03   -0.14370E-04   -0.13947E-07   946   0.432E-04    0.156E-03
RMM:  97    -0.495486697229E+03   -0.94551E-05   -0.80346E-08   892   0.398E-04    0.147E-03
RMM:  98    -0.495486704577E+03   -0.73477E-05   -0.77663E-08   832   0.368E-04    0.141E-03
RMM:  99    -0.495486707087E+03   -0.25104E-05   -0.47252E-08   725   0.317E-04    0.985E-04
RMM: 100    -0.495486713033E+03   -0.59459E-05   -0.65019E-08   750   0.321E-04    0.775E-04
RMM: 101    -0.495486715519E+03   -0.24862E-05   -0.52772E-08   756   0.317E-04    0.106E-03
RMM: 102    -0.495486717953E+03   -0.24339E-05   -0.29153E-08   650   0.301E-04    0.565E-04
RMM: 103    -0.495486719345E+03   -0.13924E-05   -0.20094E-08   493   0.269E-04    0.502E-04
RMM: 104    -0.495486720650E+03   -0.13046E-05   -0.24520E-08   535   0.272E-04    0.474E-04
RMM: 105    -0.495486721486E+03   -0.83552E-06   -0.21260E-08   542   0.270E-04
   1 F= -.53095305E+03 E0= -.53095722E+03  d E =-.530953E+03  mag=    93.7931
       N       E                     dE             d eps       ncg     rms          rms(c)
DAV:   1    -0.493337729356E+03    0.21490E+01   -0.14975E+03  2096   0.464E+01    0.156E+01
RMM:   2    -0.505295701605E+03   -0.11958E+02   -0.58035E+01  2100   0.181E+01    0.430E+01
RMM:   3    -0.500139438468E+03    0.51563E+01   -0.13901E+01  2285   0.715E+00    0.240E+01
RMM:   4    -0.502449724497E+03   -0.23103E+01   -0.37161E+00  2111   0.377E+00    0.322E+01
RMM:   5    -0.499601980642E+03    0.28477E+01   -0.16793E+00  2103   0.262E+00    0.178E+01
RMM:   6    -0.498722758284E+03    0.87922E+00   -0.71714E-01  2100   0.169E+00    0.920E+00
RMM:   7    -0.498738929347E+03   -0.16171E-01   -0.39659E-01  2100   0.126E+00    0.949E+00
RMM:   8    -0.498626262665E+03    0.11267E+00   -0.30958E-01  2100   0.116E+00    0.734E+00
RMM:   9    -0.498712212140E+03   -0.85949E-01   -0.31504E-01  2101   0.113E+00    0.916E+00
RMM:  10    -0.498557712843E+03    0.15450E+00   -0.32797E-01  2102   0.117E+00    0.638E+00
RMM:  11    -0.498540651100E+03    0.17062E-01   -0.22681E-01  2101   0.962E-01    0.647E+00
RMM:  12    -0.498493134366E+03    0.47517E-01   -0.14889E-01  2103   0.775E-01    0.470E+00
RMM:  13    -0.498451691812E+03    0.41443E-01   -0.66466E-02  2101   0.535E-01    0.261E+00
RMM:  14    -0.498449908072E+03    0.17837E-02   -0.34228E-02  2101   0.375E-01    0.265E+00
RMM:  15    -0.498436721525E+03    0.13187E-01   -0.17475E-02  2100   0.271E-01    0.125E+00
RMM:  16    -0.498439720876E+03   -0.29994E-02   -0.11620E-02  2100   0.219E-01    0.165E+00
RMM:  17    -0.498433119534E+03    0.66013E-02   -0.75364E-03  2100   0.180E-01    0.833E-01
RMM:  18    -0.498432432915E+03    0.68662E-03   -0.41844E-03  2100   0.133E-01    0.697E-01
RMM:  19    -0.498431406667E+03    0.10262E-02   -0.23518E-03  2100   0.966E-02    0.513E-01
RMM:  20    -0.498430616540E+03    0.79013E-03   -0.95475E-04  2100   0.644E-02    0.239E-01
RMM:  21    -0.498430650707E+03   -0.34167E-04   -0.51844E-04  2102   0.442E-02    0.304E-01
RMM:  22    -0.498430373219E+03    0.27749E-03   -0.31537E-04  2100   0.366E-02    0.163E-01
RMM:  23    -0.498430380676E+03   -0.74567E-05   -0.20896E-04  2101   0.291E-02    0.182E-01
RMM:  24    -0.498430311804E+03    0.68871E-04   -0.12240E-04  2099   0.230E-02    0.879E-02
RMM:  25    -0.498430388383E+03   -0.76578E-04   -0.63665E-05  2098   0.165E-02    0.106E-01
RMM:  26    -0.498430447997E+03   -0.59614E-04   -0.34797E-05  2097   0.123E-02    0.567E-02
RMM:  27    -0.498430499151E+03   -0.51154E-04   -0.14447E-05  2011   0.794E-03    0.449E-02
RMM:  28    -0.498430605980E+03   -0.10683E-03   -0.89758E-06  1924   0.612E-03    0.448E-02
RMM:  29    -0.498430675583E+03   -0.69603E-04   -0.56887E-06  1778   0.522E-03    0.236E-02
RMM:  30    -0.498430777929E+03   -0.10235E-03   -0.35346E-06  1634   0.390E-03    0.283E-02
RMM:  31    -0.498430870028E+03   -0.92099E-04   -0.31532E-06  1588   0.395E-03    0.200E-02
RMM:  32    -0.498430993913E+03   -0.12388E-03   -0.27810E-06  1513   0.344E-03    0.226E-02
RMM:  33    -0.498431121292E+03   -0.12738E-03   -0.25289E-06  1399   0.347E-03    0.171E-02
RMM:  34    -0.498431239583E+03   -0.11829E-03   -0.18710E-06  1295   0.284E-03    0.161E-02
RMM:  35    -0.498431398443E+03   -0.15886E-03   -0.23251E-06  1369   0.300E-03    0.137E-02
RMM:  36    -0.498431522723E+03   -0.12428E-03   -0.19358E-06  1297   0.267E-03    0.141E-02
RMM:  37    -0.498431605623E+03   -0.82900E-04   -0.14259E-06  1248   0.241E-03    0.116E-02
RMM:  38    -0.498431661017E+03   -0.55394E-04   -0.96029E-07  1229   0.187E-03    0.116E-02
RMM:  39    -0.498431728714E+03   -0.67698E-04   -0.11537E-06  1270   0.186E-03    0.753E-03
RMM:  40    -0.498431759047E+03   -0.30333E-04   -0.86383E-07  1263   0.171E-03    0.919E-03
RMM:  41    -0.498431783443E+03   -0.24396E-04   -0.87367E-07  1272   0.159E-03    0.570E-03
RMM:  42    -0.498431791180E+03   -0.77373E-05   -0.43322E-07  1220   0.126E-03    0.579E-03
RMM:  43    -0.498431795983E+03   -0.48031E-05   -0.39108E-07  1224   0.106E-03    0.472E-03
RMM:  44    -0.498431797329E+03   -0.13453E-05   -0.18730E-07  1190   0.815E-04    0.289E-03
RMM:  45    -0.498431799782E+03   -0.24533E-05   -0.12824E-07  1115   0.577E-04    0.291E-03
RMM:  46    -0.498431801150E+03   -0.13684E-05   -0.63269E-08  1029   0.529E-04    0.153E-03
RMM:  47    -0.498431803947E+03   -0.27968E-05   -0.34132E-08   791   0.333E-04    0.151E-03
RMM:  48    -0.498431805569E+03   -0.16216E-05   -0.18341E-08   745   0.323E-04    0.106E-03
RMM:  49    -0.498431809419E+03   -0.38503E-05   -0.18733E-08   607   0.289E-04    0.117E-03
RMM:  50    -0.498431811691E+03   -0.22721E-05   -0.11810E-08   565   0.274E-04    0.792E-04
RMM:  51    -0.498431815607E+03   -0.39153E-05   -0.31778E-08   672   0.296E-04    0.107E-03
RMM:  52    -0.498431817919E+03   -0.23128E-05   -0.25921E-08   686   0.298E-04    0.109E-03
RMM:  53    -0.498431818838E+03   -0.91911E-06   -0.49922E-09   515   0.271E-04
   2 F= -.53386063E+03 E0= -.53386717E+03  d E =-.290758E+01  mag=    93.6045
       N       E                     dE             d eps       ncg     rms          rms(c)
DAV:   1    -0.498429036721E+03    0.27812E-02   -0.24414E+00  2132   0.181E+00    0.520E-01
RMM:   2    -0.498440411216E+03   -0.11374E-01   -0.46625E-02  2100   0.504E-01    0.125E+00
RMM:   3    -0.498444323659E+03   -0.39124E-02   -0.15970E-02  2279   0.243E-01    0.163E+00
RMM:   4    -0.498444019497E+03    0.30416E-03   -0.57712E-03  2104   0.148E-01    0.161E+00
RMM:   5    -0.498436683245E+03    0.73363E-02   -0.36694E-03  2100   0.126E-01    0.584E-01
RMM:   6    -0.498435779900E+03    0.90335E-03   -0.93856E-04  2100   0.649E-02    0.221E-01
RMM:   7    -0.498435817204E+03   -0.37304E-04   -0.29773E-04  2103   0.346E-02    0.246E-01
RMM:   8    -0.498435735067E+03    0.82136E-04   -0.26454E-04  2103   0.308E-02    0.239E-01
RMM:   9    -0.498435694368E+03    0.40699E-04   -0.28440E-04  2101   0.336E-02    0.223E-01
RMM:  10    -0.498435913533E+03   -0.21916E-03   -0.44844E-04  2099   0.412E-02    0.330E-01
RMM:  11    -0.498435624527E+03    0.28901E-03   -0.30846E-04  2103   0.359E-02    0.143E-01
RMM:  12    -0.498435577700E+03    0.46827E-04   -0.91902E-05  2100   0.197E-02    0.696E-02
RMM:  13    -0.498435572857E+03    0.48428E-05   -0.25252E-05  2096   0.979E-03    0.609E-02
RMM:  14    -0.498435563603E+03    0.92538E-05   -0.10752E-05  1978   0.665E-03    0.273E-02
RMM:  15    -0.498435563310E+03    0.29298E-06   -0.61769E-06  1993   0.491E-03
   3 F= -.53386441E+03 E0= -.53387091E+03  d E =-.291136E+01  mag=    93.6002
       N       E                     dE             d eps       ncg     rms          rms(c)
DAV:   1    -0.497953872019E+03    0.48169E+00   -0.38211E+02  2096   0.239E+01    0.809E+00
RMM:   2    -0.499812747324E+03   -0.18589E+01   -0.84752E+00  2102   0.696E+00    0.161E+01
RMM:   3    -0.500540788362E+03   -0.72804E+00   -0.33381E+00  2204   0.355E+00    0.201E+01
RMM:   4    -0.500130976081E+03    0.40981E+00   -0.11345E+00  2101   0.215E+00    0.150E+01
RMM:   5    -0.499417656698E+03    0.71332E+00   -0.37822E-01  2105   0.122E+00    0.796E+00
RMM:   6    -0.499263018735E+03    0.15464E+00   -0.20819E-01  2100   0.921E-01    0.435E+00
RMM:   7    -0.499269867096E+03   -0.68484E-02   -0.10641E-01  2100   0.655E-01    0.476E+00
RMM:   8    -0.499209506113E+03    0.60361E-01   -0.53046E-02  2101   0.483E-01    0.216E+00
RMM:   9    -0.499218115434E+03   -0.86093E-02   -0.36519E-02  2101   0.384E-01    0.313E+00
RMM:  10    -0.499204239904E+03    0.13876E-01   -0.41446E-02  2102   0.395E-01    0.196E+00
RMM:  11    -0.499211728106E+03   -0.74882E-02   -0.40758E-02  2100   0.404E-01    0.271E+00
RMM:  12    -0.499193391511E+03    0.18337E-01   -0.23372E-02  2102   0.311E-01    0.128E+00
RMM:  13    -0.499192557234E+03    0.83428E-03   -0.90038E-03  2102   0.193E-01    0.113E+00
RMM:  14    -0.499191357066E+03    0.12002E-02   -0.46687E-03  2100   0.139E-01    0.835E-01
RMM:  15    -0.499189422004E+03    0.19351E-02   -0.22460E-03  2100   0.102E-01    0.355E-01
RMM:  16    -0.499189740836E+03   -0.31883E-03   -0.10843E-03  2100   0.660E-02    0.433E-01
RMM:  17    -0.499189417141E+03    0.32370E-03   -0.59204E-04  2100   0.500E-02    0.200E-01
RMM:  18    -0.499189462960E+03   -0.45818E-04   -0.26959E-04  2100   0.337E-02    0.175E-01
RMM:  19    -0.499189567625E+03   -0.10466E-03   -0.17843E-04  2100   0.257E-02    0.141E-01
RMM:  20    -0.499189603245E+03   -0.35621E-04   -0.10557E-04  2101   0.206E-02    0.842E-02
RMM:  21    -0.499189718216E+03   -0.11497E-03   -0.65095E-05  2098   0.158E-02    0.103E-01
RMM:  22    -0.499189753992E+03   -0.35776E-04   -0.35664E-05  2096   0.122E-02    0.451E-02
RMM:  23    -0.499189806101E+03   -0.52109E-04   -0.16793E-05  2094   0.818E-03    0.518E-02
RMM:  24    -0.499189859922E+03   -0.53821E-04   -0.99612E-06  1957   0.646E-03    0.283E-02
RMM:  25    -0.499189898200E+03   -0.38279E-04   -0.61823E-06  1813   0.528E-03    0.295E-02
RMM:  26    -0.499189934542E+03   -0.36341E-04   -0.35125E-06  1649   0.409E-03    0.201E-02
RMM:  27    -0.499189960677E+03   -0.26135E-04   -0.21533E-06  1412   0.325E-03    0.167E-02
RMM:  28    -0.499189994289E+03   -0.33612E-04   -0.11998E-06  1210   0.247E-03    0.114E-02
RMM:  29    -0.499190014083E+03   -0.19794E-04   -0.75462E-07  1186   0.198E-03    0.978E-03
RMM:  30    -0.499190051790E+03   -0.37707E-04   -0.68160E-07  1225   0.165E-03    0.965E-03
RMM:  31    -0.499190074439E+03   -0.22649E-04   -0.50876E-07  1190   0.158E-03    0.824E-03
RMM:  32    -0.499190109099E+03   -0.34659E-04   -0.55783E-07  1223   0.138E-03    0.870E-03
RMM:  33    -0.499190140083E+03   -0.30984E-04   -0.47417E-07  1213   0.136E-03    0.471E-03
RMM:  34    -0.499190163830E+03   -0.23747E-04   -0.38643E-07  1202   0.113E-03    0.754E-03
RMM:  35    -0.499190195225E+03   -0.31395E-04   -0.48203E-07  1244   0.117E-03    0.405E-03
RMM:  36    -0.499190212547E+03   -0.17323E-04   -0.29335E-07  1199   0.967E-04    0.482E-03
RMM:  37    -0.499190237631E+03   -0.25084E-04   -0.40331E-07  1246   0.928E-04    0.340E-03
RMM:  38    -0.499190246226E+03   -0.85945E-05   -0.15624E-07  1124   0.742E-04    0.322E-03
RMM:  39    -0.499190257972E+03   -0.11746E-04   -0.17526E-07  1186   0.633E-04    0.265E-03
RMM:  40    -0.499190263135E+03   -0.51626E-05   -0.86619E-08  1085   0.584E-04    0.183E-03
RMM:  41    -0.499190268498E+03   -0.53634E-05   -0.69209E-08  1000   0.443E-04    0.217E-03
RMM:  42    -0.499190270816E+03   -0.23176E-05   -0.33913E-08   922   0.411E-04    0.940E-04
RMM:  43    -0.499190272445E+03   -0.16291E-05   -0.92909E-09   562   0.279E-04    0.104E-03
RMM:  44    -0.499190273441E+03   -0.99575E-06   -0.30182E-09   454   0.234E-04
   4 F= -.53460603E+03 E0= -.53461238E+03  d E =-.741618E+00  mag=    93.4966
       N       E                     dE             d eps       ncg     rms          rms(c)
DAV:   1    -0.499182371300E+03    0.79011E-02   -0.61778E+00  2096   0.299E+00    0.960E-01
RMM:   2    -0.499209613607E+03   -0.27242E-01   -0.10077E-01  2100   0.730E-01    0.190E+00
RMM:   3    -0.499234402766E+03   -0.24789E-01   -0.44777E-02  2206   0.418E-01    0.340E+00
RMM:   4    -0.499226698343E+03    0.77044E-02   -0.19756E-02  2105   0.280E-01    0.278E+00
RMM:   5    -0.499203311490E+03    0.23387E-01   -0.10943E-02  2100   0.219E-01    0.919E-01
RMM:   6    -0.499200953221E+03    0.23583E-02   -0.25857E-03  2100   0.105E-01    0.400E-01
RMM:   7    -0.499200910458E+03    0.42763E-04   -0.98045E-04  2100   0.632E-02    0.402E-01
RMM:   8    -0.499200579132E+03    0.33133E-03   -0.64546E-04  2104   0.499E-02    0.317E-01
RMM:   9    -0.499200442284E+03    0.13685E-03   -0.54201E-04  2101   0.467E-02    0.259E-01
RMM:  10    -0.499200742120E+03   -0.29984E-03   -0.81638E-04  2100   0.541E-02    0.399E-01
RMM:  11    -0.499200354064E+03    0.38806E-03   -0.54600E-04  2103   0.467E-02    0.224E-01
RMM:  12    -0.499200265014E+03    0.89050E-04   -0.21442E-04  2102   0.294E-02    0.140E-01
RMM:  13    -0.499200221327E+03    0.43687E-04   -0.83398E-05  2098   0.182E-02    0.749E-02
RMM:  14    -0.499200215237E+03    0.60899E-05   -0.27582E-05  2096   0.108E-02    0.485E-02
RMM:  15    -0.499200220615E+03   -0.53782E-05   -0.13889E-05  2096   0.740E-03    0.429E-02
RMM:  16    -0.499200221602E+03   -0.98687E-06   -0.84518E-06  1957   0.583E-03
   5 F= -.53461569E+03 E0= -.53462202E+03  d E =-.751281E+00  mag=    93.4892
       N       E                     dE             d eps       ncg     rms          rms(c)
DAV:   1    -0.499147102169E+03    0.53118E-01   -0.99141E+01  2096   0.121E+01    0.373E+00
RMM:   2    -0.499549002922E+03   -0.40190E+00   -0.18333E+00  2100   0.324E+00    0.730E+00
RMM:   3    -0.499923203050E+03   -0.37420E+00   -0.72789E-01  2236   0.163E+00    0.125E+01
RMM:   4    -0.499735424424E+03    0.18778E+00   -0.25507E-01  2103   0.100E+00    0.830E+00
RMM:   5    -0.499475196980E+03    0.26023E+00   -0.10376E-01  2100   0.658E-01    0.319E+00
RMM:   6    -0.499453692727E+03    0.21504E-01   -0.36989E-02  2100   0.392E-01    0.198E+00
RMM:   7    -0.499449593490E+03    0.40992E-02   -0.18367E-02  2100   0.272E-01    0.166E+00
RMM:   8    -0.499443310579E+03    0.62829E-02   -0.90665E-03  2102   0.197E-01    0.106E+00
RMM:   9    -0.499443110212E+03    0.20037E-03   -0.80348E-03  2102   0.181E-01    0.118E+00
RMM:  10    -0.499441881082E+03    0.12291E-02   -0.97160E-03  2101   0.190E-01    0.105E+00
RMM:  11    -0.499442624308E+03   -0.74323E-03   -0.96060E-03  2100   0.194E-01    0.119E+00
RMM:  12    -0.499438374505E+03    0.42498E-02   -0.56771E-03  2103   0.152E-01    0.588E-01
RMM:  13    -0.499438080974E+03    0.29353E-03   -0.15423E-03  2105   0.802E-02    0.439E-01
RMM:  14    -0.499438147967E+03   -0.66993E-04   -0.85178E-04  2100   0.597E-02    0.429E-01
RMM:  15    -0.499437759188E+03    0.38878E-03   -0.36030E-04  2100   0.405E-02    0.189E-01
RMM:  16    -0.499437874415E+03   -0.11523E-03   -0.21242E-04  2098   0.291E-02    0.210E-01
RMM:  17    -0.499437844780E+03    0.29635E-04   -0.12555E-04  2100   0.228E-02    0.771E-02
RMM:  18    -0.499437937942E+03   -0.93162E-04   -0.73784E-05  2099   0.171E-02    0.107E-01
RMM:  19    -0.499437993128E+03   -0.55187E-04   -0.50666E-05  2099   0.138E-02    0.634E-02
RMM:  20    -0.499438033870E+03   -0.40742E-04   -0.25978E-05  2096   0.101E-02    0.489E-02
RMM:  21    -0.499438097980E+03   -0.64110E-04   -0.17115E-05  2096   0.797E-03    0.512E-02
RMM:  22    -0.499438131359E+03   -0.33379E-04   -0.10432E-05  1964   0.650E-03    0.258E-02
RMM:  23    -0.499438178356E+03   -0.46997E-04   -0.57996E-06  1800   0.491E-03    0.276E-02
RMM:  24    -0.499438208343E+03   -0.29987E-04   -0.33735E-06  1622   0.413E-03    0.141E-02
RMM:  25    -0.499438234138E+03   -0.25795E-04   -0.14786E-06  1218   0.274E-03    0.155E-02
RMM:  26    -0.499438252046E+03   -0.17908E-04   -0.80497E-07  1181   0.218E-03    0.682E-03
RMM:  27    -0.499438270127E+03   -0.18081E-04   -0.37265E-07  1175   0.135E-03    0.743E-03
RMM:  28    -0.499438292669E+03   -0.22542E-04   -0.27506E-07  1184   0.116E-03    0.474E-03
RMM:  29    -0.499438311287E+03   -0.18618E-04   -0.18044E-07  1181   0.876E-04    0.518E-03
RMM:  30    -0.499438339341E+03   -0.28054E-04   -0.20313E-07  1193   0.822E-04    0.455E-03
RMM:  31    -0.499438357489E+03   -0.18148E-04   -0.13234E-07  1134   0.695E-04    0.452E-03
RMM:  32    -0.499438389625E+03   -0.32135E-04   -0.22239E-07  1194   0.696E-04    0.425E-03
RMM:  33    -0.499438407082E+03   -0.17458E-04   -0.12222E-07  1099   0.631E-04    0.295E-03
RMM:  34    -0.499438435780E+03   -0.28698E-04   -0.22011E-07  1153   0.610E-04    0.365E-03
RMM:  35    -0.499438460346E+03   -0.24566E-04   -0.21978E-07  1143   0.664E-04    0.202E-03
RMM:  36    -0.499438483037E+03   -0.22691E-04   -0.25031E-07  1170   0.605E-04    0.330E-03
RMM:  37    -0.499438498991E+03   -0.15954E-04   -0.21589E-07  1123   0.636E-04    0.175E-03
RMM:  38    -0.499438507134E+03   -0.81430E-05   -0.13374E-07  1075   0.496E-04    0.222E-03
RMM:  39    -0.499438512958E+03   -0.58237E-05   -0.14823E-07  1070   0.493E-04    0.133E-03
RMM:  40    -0.499438513810E+03   -0.85217E-06   -0.81604E-08   970   0.415E-04
   6 F= -.53483806E+03 E0= -.53484472E+03  d E =-.222367E+00  mag=    93.4655
       N       E                     dE             d eps       ncg     rms          rms(c)
DAV:   1    -0.499393737151E+03    0.44776E-01   -0.28647E+01  2096   0.646E+00    0.196E+00
RMM:   2    -0.499501485681E+03   -0.10775E+00   -0.47380E-01  2100   0.162E+00    0.357E+00
RMM:   3    -0.499581222244E+03   -0.79737E-01   -0.20185E-01  2219   0.873E-01    0.621E+00
RMM:   4    -0.499511724038E+03    0.69498E-01   -0.80400E-02  2101   0.572E-01    0.327E+00
RMM:   5    -0.499483963463E+03    0.27761E-01   -0.20411E-02  2102   0.289E-01    0.149E+00
RMM:   6    -0.499479360705E+03    0.46028E-02   -0.57924E-03  2105   0.150E-01    0.945E-01
RMM:   7    -0.499477943864E+03    0.14168E-02   -0.34142E-03  2100   0.117E-01    0.780E-01
RMM:   8    -0.499476291508E+03    0.16524E-02   -0.22169E-03  2100   0.961E-02    0.525E-01
RMM:   9    -0.499476396820E+03   -0.10531E-03   -0.22739E-03  2102   0.947E-02    0.611E-01
RMM:  10    -0.499476166921E+03    0.22990E-03   -0.31186E-03  2100   0.105E-01    0.555E-01
RMM:  11    -0.499476246932E+03   -0.80010E-04   -0.27881E-03  2105   0.104E-01    0.622E-01
RMM:  12    -0.499475130189E+03    0.11167E-02   -0.13504E-03  2101   0.745E-02    0.270E-01
RMM:  13    -0.499474970251E+03    0.15994E-03   -0.33854E-04  2101   0.378E-02    0.144E-01
RMM:  14    -0.499474986700E+03   -0.16449E-04   -0.10567E-04  2100   0.206E-02    0.140E-01
RMM:  15    -0.499474955656E+03    0.31044E-04   -0.61118E-05  2096   0.163E-02    0.684E-02
RMM:  16    -0.499474970764E+03   -0.15108E-04   -0.30706E-05  2097   0.111E-02    0.652E-02
RMM:  17    -0.499474991004E+03   -0.20240E-04   -0.27371E-05  2097   0.951E-03    0.427E-02
RMM:  18    -0.499475010675E+03   -0.19672E-04   -0.17410E-05  2096   0.800E-03    0.411E-02
RMM:  19    -0.499475039186E+03   -0.28511E-04   -0.13494E-05  2094   0.676E-03    0.354E-02
RMM:  20    -0.499475050790E+03   -0.11604E-04   -0.62646E-06  1849   0.493E-03    0.188E-02
RMM:  21    -0.499475063202E+03   -0.12413E-04   -0.23513E-06  1393   0.338E-03    0.186E-02
RMM:  22    -0.499475072696E+03   -0.94938E-05   -0.14005E-06  1181   0.288E-03    0.927E-03
RMM:  23    -0.499475082754E+03   -0.10058E-04   -0.65066E-07  1172   0.183E-03    0.942E-03
RMM:  24    -0.499475092763E+03   -0.10009E-04   -0.41197E-07  1173   0.153E-03    0.527E-03
RMM:  25    -0.499475101562E+03   -0.87985E-05   -0.20881E-07  1168   0.103E-03    0.593E-03
RMM:  26    -0.499475109427E+03   -0.78649E-05   -0.12728E-07  1167   0.825E-04    0.358E-03
RMM:  27    -0.499475116213E+03   -0.67859E-05   -0.71960E-08  1051   0.573E-04    0.380E-03
RMM:  28    -0.499475126860E+03   -0.10647E-04   -0.76607E-08  1152   0.543E-04    0.266E-03
RMM:  29    -0.499475134318E+03   -0.74583E-05   -0.48854E-08  1033   0.462E-04    0.230E-03
RMM:  30    -0.499475150811E+03   -0.16493E-04   -0.92004E-08  1068   0.450E-04    0.238E-03
RMM:  31    -0.499475159529E+03   -0.87178E-05   -0.51442E-08   985   0.432E-04    0.205E-03
RMM:  32    -0.499475174687E+03   -0.15158E-04   -0.97318E-08   992   0.422E-04    0.221E-03
RMM:  33    -0.499475183659E+03   -0.89723E-05   -0.60062E-08   926   0.415E-04    0.153E-03
RMM:  34    -0.499475195794E+03   -0.12135E-04   -0.10282E-07  1027   0.404E-04    0.203E-03
RMM:  35    -0.499475203175E+03   -0.73812E-05   -0.70604E-08   961   0.407E-04    0.112E-03
RMM:  36    -0.499475209593E+03   -0.64174E-05   -0.74021E-08   974   0.373E-04    0.182E-03
RMM:  37    -0.499475213786E+03   -0.41927E-05   -0.68424E-08   919   0.365E-04    0.950E-04
RMM:  38    -0.499475214761E+03   -0.97517E-06   -0.31670E-08   672   0.302E-04
   7 F= -.53486833E+03 E0= -.53487507E+03  d E =-.252637E+00  mag=    93.4556
       N       E                     dE             d eps       ncg     rms          rms(c)
DAV:   1    -0.499472450357E+03    0.27634E-02   -0.27354E+01  2096   0.618E+00    0.167E+00
RMM:   2    -0.499582549556E+03   -0.11010E+00   -0.47909E-01  2100   0.162E+00    0.397E+00
RMM:   3    -0.499636558194E+03   -0.54009E-01   -0.16473E-01  2286   0.770E-01    0.528E+00
RMM:   4    -0.499621079642E+03    0.15479E-01   -0.59219E-02  2103   0.476E-01    0.450E+00
RMM:   5    -0.499551962799E+03    0.69117E-01   -0.33007E-02  2100   0.376E-01    0.158E+00
RMM:   6    -0.499544666164E+03    0.72966E-02   -0.80937E-03  2101   0.187E-01    0.624E-01
RMM:   7    -0.499543987093E+03    0.67907E-03   -0.24562E-03  2102   0.100E-01    0.550E-01
RMM:   8    -0.499543360551E+03    0.62654E-03   -0.16110E-03  2101   0.815E-02    0.507E-01
RMM:   9    -0.499543474670E+03   -0.11412E-03   -0.19239E-03  2104   0.855E-02    0.624E-01
RMM:  10    -0.499543310690E+03    0.16398E-03   -0.28856E-03  2112   0.100E-01    0.616E-01
RMM:  11    -0.499543119970E+03    0.19072E-03   -0.24039E-03  2106   0.946E-02    0.604E-01
RMM:  12    -0.499542312995E+03    0.80698E-03   -0.12800E-03  2101   0.706E-02    0.333E-01
RMM:  13    -0.499542062275E+03    0.25072E-03   -0.36361E-04  2100   0.389E-02    0.140E-01
RMM:  14    -0.499542125666E+03   -0.63391E-04   -0.14592E-04  2100   0.245E-02    0.175E-01
RMM:  15    -0.499542056692E+03    0.68974E-04   -0.72387E-05  2097   0.180E-02    0.717E-02
RMM:  16    -0.499542068157E+03   -0.11465E-04   -0.33456E-05  2096   0.119E-02    0.689E-02
RMM:  17    -0.499542080126E+03   -0.11969E-04   -0.26056E-05  2096   0.961E-03    0.469E-02
RMM:  18    -0.499542090537E+03   -0.10411E-04   -0.17660E-05  2096   0.819E-03    0.384E-02
RMM:  19    -0.499542105335E+03   -0.14798E-04   -0.14350E-05  2096   0.679E-03    0.377E-02
RMM:  20    -0.499542107428E+03   -0.20930E-05   -0.76293E-06  1957   0.527E-03    0.183E-02
RMM:  21    -0.499542111587E+03   -0.41598E-05   -0.33673E-06  1616   0.382E-03    0.233E-02
RMM:  22    -0.499542112377E+03   -0.78954E-06   -0.21704E-06  1319   0.350E-03
   8 F= -.53492254E+03 E0= -.53492957E+03  d E =-.542034E-01  mag=    93.4448
       N       E                     dE             d eps       ncg     rms          rms(c)
DAV:   1    -0.499535690857E+03    0.64207E-02   -0.82426E+00  2096   0.339E+00    0.907E-01
RMM:   2    -0.499566795352E+03   -0.31104E-01   -0.13929E-01  2100   0.864E-01    0.201E+00
RMM:   3    -0.499582983201E+03   -0.16188E-01   -0.49602E-02  2275   0.426E-01    0.287E+00
RMM:   4    -0.499581796274E+03    0.11869E-02   -0.17545E-02  2104   0.260E-01    0.257E+00
RMM:   5    -0.499559249460E+03    0.22547E-01   -0.94771E-03  2101   0.202E-01    0.833E-01
RMM:   6    -0.499557200704E+03    0.20488E-02   -0.21959E-03  2100   0.973E-02    0.301E-01
RMM:   7    -0.499557049867E+03    0.15084E-03   -0.63063E-04  2101   0.505E-02    0.290E-01
RMM:   8    -0.499556845912E+03    0.20396E-03   -0.45596E-04  2103   0.425E-02    0.261E-01
RMM:   9    -0.499556904541E+03   -0.58629E-04   -0.58916E-04  2102   0.470E-02    0.339E-01
RMM:  10    -0.499556887696E+03    0.16845E-04   -0.93412E-04  2110   0.562E-02    0.337E-01
RMM:  11    -0.499556786994E+03    0.10070E-03   -0.71106E-04  2111   0.515E-02    0.311E-01
RMM:  12    -0.499556580270E+03    0.20672E-03   -0.33586E-04  2101   0.360E-02    0.180E-01
RMM:  13    -0.499556499121E+03    0.81149E-04   -0.93003E-05  2099   0.196E-02    0.584E-02
RMM:  14    -0.499556508216E+03   -0.90953E-05   -0.28641E-05  2096   0.108E-02    0.713E-02
RMM:  15    -0.499556497417E+03    0.10799E-04   -0.15604E-05  2096   0.806E-03    0.360E-02
RMM:  16    -0.499556498382E+03   -0.96492E-06   -0.85750E-06  1998   0.594E-03
   9 F= -.53493046E+03 E0= -.53493765E+03  d E =-.621298E-01  mag=    93.4390
       N       E                     dE             d eps       ncg     rms          rms(c)
DAV:   1    -0.499537569367E+03    0.18928E-01   -0.27049E+01  2096   0.619E+00    0.172E+00
RMM:   2    -0.499631888295E+03   -0.94319E-01   -0.43533E-01  2100   0.154E+00    0.335E+00
RMM:   3    -0.499697657695E+03   -0.65769E-01   -0.17349E-01  2241   0.805E-01    0.534E+00
RMM:   4    -0.499676084286E+03    0.21573E-01   -0.59709E-02  2101   0.488E-01    0.429E+00
RMM:   5    -0.499615194386E+03    0.60890E-01   -0.24207E-02  2100   0.317E-01    0.134E+00
RMM:   6    -0.499609973269E+03    0.52211E-02   -0.76107E-03  2100   0.178E-01    0.634E-01
RMM:   7    -0.499608826242E+03    0.11470E-02   -0.23260E-03  2101   0.968E-02    0.516E-01
RMM:   8    -0.499608167566E+03    0.65868E-03   -0.13876E-03  2102   0.751E-02    0.437E-01
RMM:   9    -0.499608216125E+03   -0.48559E-04   -0.19278E-03  2108   0.828E-02    0.590E-01
RMM:  10    -0.499608171782E+03    0.44343E-04   -0.26348E-03  2110   0.953E-02    0.582E-01
RMM:  11    -0.499608068704E+03    0.10308E-03   -0.21491E-03  2108   0.895E-02    0.579E-01
RMM:  12    -0.499607155888E+03    0.91282E-03   -0.10091E-03  2101   0.633E-02    0.217E-01
RMM:  13    -0.499607067069E+03    0.88819E-04   -0.23003E-04  2102   0.306E-02    0.114E-01
RMM:  14    -0.499607059168E+03    0.79016E-05   -0.90530E-05  2099   0.191E-02    0.118E-01
RMM:  15    -0.499607019008E+03    0.40159E-04   -0.41725E-05  2096   0.135E-02    0.486E-02
RMM:  16    -0.499607016668E+03    0.23402E-05   -0.26736E-05  2096   0.100E-02    0.674E-02
RMM:  17    -0.499607001597E+03    0.15071E-04   -0.20288E-05  2096   0.844E-03    0.359E-02
RMM:  18    -0.499606999101E+03    0.24956E-05   -0.14162E-05  2096   0.725E-03    0.437E-02
RMM:  19    -0.499606996348E+03    0.27535E-05   -0.12036E-05  2095   0.612E-03    0.285E-02
RMM:  20    -0.499606996203E+03    0.14470E-06   -0.45669E-06  1744   0.426E-03
  10 F= -.53496302E+03 E0= -.53497072E+03  d E =-.325603E-01  mag=    93.4260
       N       E                     dE             d eps       ncg     rms          rms(c)
DAV:   1    -0.499608330022E+03   -0.13337E-02   -0.18797E+00  2120   0.163E+00    0.449E-01
RMM:   2    -0.499614799488E+03   -0.64695E-02   -0.29382E-02  2100   0.393E-01    0.866E-01
RMM:   3    -0.499618215657E+03   -0.34162E-02   -0.12095E-02  2233   0.214E-01    0.130E+00
RMM:   4    -0.499616176848E+03    0.20388E-02   -0.41432E-03  2100   0.130E-01    0.927E-01
RMM:   5    -0.499613729253E+03    0.24476E-02   -0.11844E-03  2103   0.696E-02    0.359E-01
RMM:   6    -0.499613295863E+03    0.43339E-03   -0.37858E-04  2100   0.392E-02    0.136E-01
RMM:   7    -0.499613246720E+03    0.49143E-04   -0.12328E-04  2100   0.221E-02    0.138E-01
RMM:   8    -0.499613199841E+03    0.46879E-04   -0.89041E-05  2098   0.186E-02    0.111E-01
RMM:   9    -0.499613208989E+03   -0.91476E-05   -0.13627E-04  2106   0.221E-02    0.160E-01
RMM:  10    -0.499613201318E+03    0.76711E-05   -0.20924E-04  2106   0.261E-02    0.141E-01
RMM:  11    -0.499613193105E+03    0.82125E-05   -0.14223E-04  2105   0.231E-02    0.137E-01
RMM:  12    -0.499613147727E+03    0.45378E-04   -0.62730E-05  2099   0.156E-02    0.611E-02
RMM:  13    -0.499613142861E+03    0.48660E-05   -0.13959E-05  2010   0.752E-03    0.277E-02
RMM:  14    -0.499613143519E+03   -0.65795E-06   -0.44651E-06  1744   0.435E-03
  11 F= -.53496460E+03 E0= -.53497242E+03  d E =-.341391E-01  mag=    93.4218
       N       E                     dE             d eps       ncg     rms          rms(c)
DAV:   1    -0.499601130169E+03    0.12013E-01   -0.16506E+01  2096   0.487E+00    0.144E+00
RMM:   2    -0.499659286348E+03   -0.58156E-01   -0.25543E-01  2100   0.116E+00    0.247E+00
RMM:   3    -0.499702546249E+03   -0.43260E-01   -0.11054E-01  2194   0.651E-01    0.423E+00
RMM:   4    -0.499654632216E+03    0.47914E-01   -0.42098E-02  2101   0.421E-01    0.143E+00
RMM:   5    -0.499647977521E+03    0.66547E-02   -0.89574E-03  2106   0.194E-01    0.489E-01
RMM:   6    -0.499648153730E+03   -0.17621E-03   -0.20135E-03  2107   0.871E-02    0.576E-01
RMM:   7    -0.499647789129E+03    0.36460E-03   -0.86916E-04  2102   0.579E-02    0.546E-01
RMM:   8    -0.499646955149E+03    0.83398E-03   -0.66248E-04  2101   0.510E-02    0.386E-01
RMM:   9    -0.499646958627E+03   -0.34786E-05   -0.10733E-03  2101   0.619E-02    0.482E-01
RMM:  10    -0.499646725573E+03    0.23305E-03   -0.15074E-03  2102   0.717E-02    0.412E-01
RMM:  11    -0.499646634824E+03    0.90749E-04   -0.12905E-03  2109   0.695E-02    0.412E-01
RMM:  12    -0.499646161919E+03    0.47291E-03   -0.58160E-04  2100   0.485E-02    0.175E-01
RMM:  13    -0.499646081489E+03    0.80429E-04   -0.13269E-04  2102   0.233E-02    0.809E-02
RMM:  14    -0.499646080423E+03    0.10665E-05   -0.45761E-05  2097   0.135E-02    0.821E-02
RMM:  15    -0.499646057126E+03    0.23297E-04   -0.22245E-05  2096   0.965E-03    0.386E-02
RMM:  16    -0.499646060565E+03   -0.34389E-05   -0.14009E-05  2096   0.726E-03    0.434E-02
RMM:  17    -0.499646062266E+03   -0.17017E-05   -0.11815E-05  2093   0.611E-03    0.300E-02
RMM:  18    -0.499646071103E+03   -0.88364E-05   -0.82345E-06  1993   0.540E-03    0.265E-02
RMM:  19    -0.499646092587E+03   -0.21485E-04   -0.69070E-06  2052   0.452E-03    0.202E-02
RMM:  20    -0.499646102557E+03   -0.99699E-05   -0.22600E-06  1357   0.310E-03    0.123E-02
RMM:  21    -0.499646119105E+03   -0.16548E-04   -0.12695E-06  1183   0.260E-03    0.117E-02
RMM:  22    -0.499646134106E+03   -0.15001E-04   -0.71470E-07  1175   0.202E-03    0.726E-03
RMM:  23    -0.499646148738E+03   -0.14632E-04   -0.30855E-07  1174   0.123E-03    0.712E-03
RMM:  24    -0.499646167973E+03   -0.19234E-04   -0.24603E-07  1179   0.110E-03    0.538E-03
RMM:  25    -0.499646191445E+03   -0.23472E-04   -0.22630E-07  1190   0.945E-04    0.561E-03
RMM:  26    -0.499646225812E+03   -0.34367E-04   -0.26108E-07  1203   0.913E-04    0.438E-03
RMM:  27    -0.499646250722E+03   -0.24910E-04   -0.21100E-07  1197   0.838E-04    0.466E-03
RMM:  28    -0.499646288120E+03   -0.37397E-04   -0.30185E-07  1215   0.841E-04    0.360E-03
RMM:  29    -0.499646314269E+03   -0.26149E-04   -0.24147E-07  1178   0.815E-04    0.464E-03
RMM:  30    -0.499646348947E+03   -0.34679E-04   -0.37444E-07  1227   0.834E-04    0.339E-03
RMM:  31    -0.499646363851E+03   -0.14903E-04   -0.17806E-07  1136   0.705E-04    0.274E-03
RMM:  32    -0.499646379136E+03   -0.15286E-04   -0.19241E-07  1112   0.601E-04    0.275E-03
RMM:  33    -0.499646386058E+03   -0.69216E-05   -0.11465E-07  1106   0.560E-04    0.167E-03
RMM:  34    -0.499646390607E+03   -0.45489E-05   -0.11598E-07  1026   0.468E-04    0.232E-03
RMM:  35    -0.499646391851E+03   -0.12440E-05   -0.99881E-08  1000   0.470E-04    0.115E-03
RMM:  36    -0.499646391340E+03    0.51140E-06   -0.46978E-08   851   0.356E-04
  12 F= -.53498184E+03 E0= -.53499002E+03  d E =-.172401E-01  mag=    93.4079
       N       E                     dE             d eps       ncg     rms          rms(c)
DAV:   1    -0.499648337071E+03   -0.19452E-02   -0.81465E-01  2148   0.108E+00    0.317E-01
RMM:   2    -0.499651168001E+03   -0.28309E-02   -0.12330E-02  2100   0.250E-01    0.543E-01
RMM:   3    -0.499653411768E+03   -0.22438E-02   -0.53520E-03  2195   0.144E-01    0.934E-01
RMM:   4    -0.499651413013E+03    0.19988E-02   -0.19654E-03  2100   0.906E-02    0.481E-01
RMM:   5    -0.499650778023E+03    0.63499E-03   -0.43738E-04  2106   0.418E-02    0.240E-01
RMM:   6    -0.499650606176E+03    0.17185E-03   -0.14780E-04  2099   0.244E-02    0.853E-02
RMM:   7    -0.499650597834E+03    0.83422E-05   -0.54839E-05  2097   0.146E-02    0.965E-02
RMM:   8    -0.499650568168E+03    0.29666E-04   -0.42570E-05  2097   0.129E-02    0.686E-02
RMM:   9    -0.499650582317E+03   -0.14149E-04   -0.61264E-05  2101   0.149E-02    0.111E-01
RMM:  10    -0.499650564146E+03    0.18171E-04   -0.85693E-05  2098   0.169E-02    0.916E-02
RMM:  11    -0.499650550406E+03    0.13740E-04   -0.57356E-05  2101   0.148E-02    0.765E-02
RMM:  12    -0.499650534848E+03    0.15559E-04   -0.22850E-05  2095   0.945E-03    0.396E-02
RMM:  13    -0.499650531080E+03    0.37680E-05   -0.53025E-06  1767   0.470E-03    0.180E-02
RMM:  14    -0.499650530109E+03    0.97130E-06   -0.17928E-06  1231   0.298E-03
  13 F= -.53498248E+03 E0= -.53499074E+03  d E =-.178837E-01  mag=    93.4072
       N       E                     dE             d eps       ncg     rms          rms(c)
DAV:   1    -0.499645284303E+03    0.52468E-02   -0.99344E+00  2096   0.379E+00    0.121E+00
RMM:   2    -0.499691739487E+03   -0.46455E-01   -0.15680E-01  2100   0.907E-01    0.250E+00
RMM:   3    -0.499735472942E+03   -0.43733E-01   -0.69130E-02  2209   0.515E-01    0.431E+00
RMM:   4    -0.499716086344E+03    0.19387E-01   -0.31343E-02  2100   0.355E-01    0.337E+00
RMM:   5    -0.499678229968E+03    0.37856E-01   -0.16879E-02  2100   0.272E-01    0.967E-01
RMM:   6    -0.499675584849E+03    0.26451E-02   -0.36632E-03  2100   0.125E-01    0.455E-01
RMM:   7    -0.499675335725E+03    0.24912E-03   -0.11010E-03  2101   0.672E-02    0.411E-01
RMM:   8    -0.499674755592E+03    0.58013E-03   -0.68389E-04  2105   0.522E-02    0.271E-01
RMM:   9    -0.499674706928E+03    0.48664E-04   -0.67069E-04  2100   0.509E-02    0.327E-01
RMM:  10    -0.499674648846E+03    0.58083E-04   -0.10137E-03  2101   0.587E-02    0.353E-01
RMM:  11    -0.499674503745E+03    0.14510E-03   -0.82922E-04  2105   0.558E-02    0.335E-01
RMM:  12    -0.499674204636E+03    0.29911E-03   -0.40717E-04  2100   0.401E-02    0.151E-01
RMM:  13    -0.499674145541E+03    0.59095E-04   -0.10773E-04  2100   0.212E-02    0.756E-02
RMM:  14    -0.499674144860E+03    0.68065E-06   -0.35788E-05  2096   0.120E-02    0.720E-02
RMM:  15    -0.499674121580E+03    0.23281E-04   -0.17827E-05  2096   0.875E-03    0.299E-02
RMM:  16    -0.499674124652E+03   -0.30726E-05   -0.92342E-06  2033   0.597E-03    0.396E-02
RMM:  17    -0.499674123681E+03    0.97090E-06   -0.82012E-06  2089   0.528E-03
  14 F= -.53499166E+03 E0= -.53500006E+03  d E =-.917597E-02  mag=    93.4042
       N       E                     dE             d eps       ncg     rms          rms(c)
DAV:   1    -0.499676206278E+03   -0.20816E-02   -0.71647E-01  2136   0.102E+00    0.325E-01
RMM:   2    -0.499679640877E+03   -0.34346E-02   -0.11170E-02  2100   0.239E-01    0.677E-01
RMM:   3    -0.499682710635E+03   -0.30698E-02   -0.49304E-03  2207   0.138E-01    0.115E+00
RMM:   4    -0.499681367653E+03    0.13430E-02   -0.22518E-03  2100   0.951E-02    0.913E-01
RMM:   5    -0.499678601256E+03    0.27664E-02   -0.12317E-03  2100   0.739E-02    0.252E-01
RMM:   6    -0.499678397967E+03    0.20329E-03   -0.23899E-04  2100   0.320E-02    0.108E-01
RMM:   7    -0.499678395556E+03    0.24109E-05   -0.68309E-05  2097   0.167E-02    0.107E-01
RMM:   8    -0.499678357919E+03    0.37637E-04   -0.48181E-05  2105   0.135E-02    0.758E-02
RMM:   9    -0.499678358462E+03   -0.54262E-06   -0.48690E-05  2096   0.137E-02    0.858E-02
RMM:  10    -0.499678388665E+03   -0.30203E-04   -0.77760E-05  2103   0.160E-02    0.113E-01
RMM:  11    -0.499678365855E+03    0.22810E-04   -0.57326E-05  2102   0.147E-02    0.650E-02
RMM:  12    -0.499678370150E+03   -0.42942E-05   -0.23155E-05  2096   0.947E-03    0.396E-02
RMM:  13    -0.499678373104E+03   -0.29541E-05   -0.61033E-06  1813   0.505E-03    0.189E-02
RMM:  14    -0.499678381207E+03   -0.81030E-05   -0.18214E-06  1259   0.301E-03    0.157E-02
RMM:  15    -0.499678392777E+03   -0.11571E-04   -0.11198E-06  1175   0.245E-03    0.890E-03
RMM:  16    -0.499678406890E+03   -0.14112E-04   -0.81789E-07  1175   0.194E-03    0.111E-02
RMM:  17    -0.499678428496E+03   -0.21606E-04   -0.89326E-07  1187   0.190E-03    0.744E-03
RMM:  18    -0.499678444480E+03   -0.15984E-04   -0.61342E-07  1176   0.171E-03    0.689E-03
RMM:  19    -0.499678473115E+03   -0.28635E-04   -0.49202E-07  1191   0.143E-03    0.590E-03
RMM:  20    -0.499678485382E+03   -0.12267E-04   -0.25125E-07  1172   0.115E-03    0.378E-03
RMM:  21    -0.499678503097E+03   -0.17715E-04   -0.15006E-07  1174   0.770E-04    0.451E-03
RMM:  22    -0.499678519568E+03   -0.16471E-04   -0.10409E-07  1145   0.671E-04    0.298E-03
RMM:  23    -0.499678538057E+03   -0.18489E-04   -0.90899E-08  1018   0.525E-04    0.354E-03
RMM:  24    -0.499678571762E+03   -0.33705E-04   -0.20039E-07  1169   0.618E-04    0.336E-03
RMM:  25    -0.499678602303E+03   -0.30541E-04   -0.22369E-07  1169   0.680E-04    0.378E-03
RMM:  26    -0.499678642517E+03   -0.40214E-04   -0.42466E-07  1226   0.734E-04    0.294E-03
RMM:  27    -0.499678660343E+03   -0.17826E-04   -0.20800E-07  1101   0.643E-04    0.231E-03
RMM:  28    -0.499678676703E+03   -0.16360E-04   -0.25403E-07  1094   0.581E-04    0.172E-03
RMM:  29    -0.499678680566E+03   -0.38631E-05   -0.10008E-07  1018   0.483E-04    0.143E-03
RMM:  30    -0.499678680864E+03   -0.29849E-06   -0.98135E-08   916   0.400E-04
  15 F= -.53499239E+03 E0= -.53500085E+03  d E =-.991002E-02  mag=    93.4014
       N       E                     dE             d eps       ncg     rms          rms(c)
DAV:   1    -0.499670691922E+03    0.79886E-02   -0.90115E+00  2120   0.360E+00    0.120E+00
RMM:   2    -0.499716321704E+03   -0.45630E-01   -0.14238E-01  2100   0.863E-01    0.270E+00
RMM:   3    -0.499745210690E+03   -0.28889E-01   -0.69642E-02  2191   0.517E-01    0.409E+00
RMM:   4    -0.499736672410E+03    0.85383E-02   -0.29781E-02  2100   0.347E-01    0.319E+00
RMM:   5    -0.499701907855E+03    0.34765E-01   -0.12752E-02  2101   0.235E-01    0.929E-01
RMM:   6    -0.499699191855E+03    0.27160E-02   -0.33318E-03  2100   0.119E-01    0.407E-01
RMM:   7    -0.499698924966E+03    0.26689E-03   -0.97389E-04  2103   0.634E-02    0.383E-01
RMM:   8    -0.499698362284E+03    0.56268E-03   -0.60321E-04  2100   0.494E-02    0.265E-01
RMM:   9    -0.499698254415E+03    0.10787E-03   -0.61319E-04  2102   0.487E-02    0.307E-01
RMM:  10    -0.499698015472E+03    0.23894E-03   -0.87118E-04  2102   0.541E-02    0.281E-01
RMM:  11    -0.499697912580E+03    0.10289E-03   -0.70930E-04  2102   0.517E-02    0.304E-01
RMM:  12    -0.499697651130E+03    0.26145E-03   -0.33393E-04  2101   0.366E-02    0.134E-01
RMM:  13    -0.499697612148E+03    0.38982E-04   -0.87873E-05  2103   0.190E-02    0.756E-02
RMM:  14    -0.499697627425E+03   -0.15276E-04   -0.30680E-05  2096   0.113E-02    0.690E-02
RMM:  15    -0.499697622090E+03    0.53350E-05   -0.14976E-05  2096   0.811E-03    0.247E-02
RMM:  16    -0.499697641833E+03   -0.19743E-04   -0.76509E-06  1923   0.550E-03    0.334E-02
RMM:  17    -0.499697668750E+03   -0.26917E-04   -0.68884E-06  2058   0.496E-03    0.215E-02
RMM:  18    -0.499697694768E+03   -0.26018E-04   -0.42201E-06  1710   0.412E-03    0.218E-02
RMM:  19    -0.499697746889E+03   -0.52121E-04   -0.34593E-06  1534   0.379E-03    0.179E-02
RMM:  20    -0.499697767474E+03   -0.20585E-04   -0.15800E-06  1193   0.292E-03    0.102E-02
RMM:  21    -0.499697808491E+03   -0.41017E-04   -0.91394E-07  1198   0.209E-03    0.115E-02
RMM:  22    -0.499697841359E+03   -0.32867E-04   -0.58458E-07  1188   0.180E-03    0.677E-03
RMM:  23    -0.499697875474E+03   -0.34116E-04   -0.30590E-07  1186   0.113E-03    0.668E-03
RMM:  24    -0.499697920885E+03   -0.45411E-04   -0.29464E-07  1193   0.105E-03    0.543E-03
RMM:  25    -0.499697965351E+03   -0.44465E-04   -0.25857E-07  1191   0.900E-04    0.613E-03
RMM:  26    -0.499698034450E+03   -0.69100E-04   -0.40964E-07  1215   0.965E-04    0.487E-03
RMM:  27    -0.499698089961E+03   -0.55510E-04   -0.35643E-07  1206   0.935E-04    0.504E-03
RMM:  28    -0.499698191572E+03   -0.10161E-03   -0.94490E-07  1265   0.110E-03    0.439E-03
RMM:  29    -0.499698253858E+03   -0.62285E-04   -0.66176E-07  1244   0.107E-03    0.454E-03
RMM:  30    -0.499698300552E+03   -0.46694E-04   -0.57445E-07  1232   0.947E-04    0.324E-03
RMM:  31    -0.499698321648E+03   -0.21096E-04   -0.26800E-07  1148   0.743E-04    0.302E-03
RMM:  32    -0.499698341619E+03   -0.19971E-04   -0.34367E-07  1191   0.693E-04    0.234E-03
RMM:  33    -0.499698345735E+03   -0.41160E-05   -0.19910E-07  1130   0.605E-04    0.147E-03
RMM:  34    -0.499698343486E+03    0.22493E-05   -0.14483E-07  1023   0.481E-04    0.183E-03
RMM:  35    -0.499698341297E+03    0.21893E-05   -0.52176E-08   929   0.423E-04    0.975E-04
RMM:  36    -0.499698339078E+03    0.22185E-05   -0.23176E-08   666   0.306E-04    0.115E-03
RMM:  37    -0.499698338140E+03    0.93824E-06   -0.84629E-09   553   0.271E-04
  16 F= -.53499913E+03 E0= -.53500776E+03  d E =-.673999E-02  mag=    93.3982
       N       E                     dE             d eps       ncg     rms          rms(c)
DAV:   1    -0.499700035981E+03   -0.16969E-02   -0.93230E-01  2164   0.116E+00    0.384E-01
RMM:   2    -0.499704810435E+03   -0.47745E-02   -0.14488E-02  2100   0.273E-01    0.883E-01
RMM:   3    -0.499707946032E+03   -0.31356E-02   -0.69443E-03  2193   0.163E-01    0.133E+00
RMM:   4    -0.499707172993E+03    0.77304E-03   -0.31184E-03  2100   0.112E-01    0.108E+00
RMM:   5    -0.499703224777E+03    0.39482E-02   -0.14520E-03  2100   0.798E-02    0.296E-01
RMM:   6    -0.499702963866E+03    0.26091E-03   -0.32594E-04  2100   0.372E-02    0.117E-01
RMM:   7    -0.499702945331E+03    0.18535E-04   -0.89511E-05  2101   0.192E-02    0.117E-01
RMM:   8    -0.499702884715E+03    0.60616E-04   -0.62465E-05  2101   0.156E-02    0.887E-02
RMM:   9    -0.499702863764E+03    0.20952E-04   -0.63232E-05  2099   0.156E-02    0.943E-02
RMM:  10    -0.499702827250E+03    0.36513E-04   -0.92793E-05  2103   0.175E-02    0.973E-02
RMM:  11    -0.499702794053E+03    0.33198E-04   -0.69615E-05  2099   0.162E-02    0.903E-02
RMM:  12    -0.499702768443E+03    0.25610E-04   -0.30634E-05  2096   0.110E-02    0.418E-02
RMM:  13    -0.499702764019E+03    0.44237E-05   -0.74742E-06  1854   0.557E-03    0.203E-02
RMM:  14    -0.499702766242E+03   -0.22228E-05   -0.21966E-06  1381   0.329E-03    0.177E-02
RMM:  15    -0.499702767628E+03   -0.13860E-05   -0.13302E-06  1182   0.276E-03    0.773E-03
RMM:  16    -0.499702771170E+03   -0.35423E-05   -0.83273E-07  1165   0.197E-03    0.105E-02
RMM:  17    -0.499702776433E+03   -0.52625E-05   -0.86319E-07  1177   0.195E-03    0.660E-03
RMM:  18    -0.499702781041E+03   -0.46086E-05   -0.55792E-07  1164   0.164E-03    0.687E-03
RMM:  19    -0.499702789869E+03   -0.88273E-05   -0.41431E-07  1176   0.140E-03    0.550E-03
RMM:  20    -0.499702793484E+03   -0.36153E-05   -0.18569E-07  1152   0.101E-03    0.333E-03
RMM:  21    -0.499702800610E+03   -0.71260E-05   -0.92269E-08  1146   0.659E-04    0.343E-03
RMM:  22    -0.499702805443E+03   -0.48332E-05   -0.48024E-08  1050   0.518E-04    0.205E-03
RMM:  23    -0.499702811775E+03   -0.63316E-05   -0.27367E-08   858   0.354E-04    0.211E-03
RMM:  24    -0.499702820820E+03   -0.90451E-05   -0.33683E-08   852   0.358E-04    0.172E-03
RMM:  25    -0.499702831135E+03   -0.10315E-04   -0.44149E-08   924   0.366E-04    0.215E-03
RMM:  26    -0.499702845249E+03   -0.14114E-04   -0.72364E-08   974   0.402E-04    0.170E-03
RMM:  27    -0.499702855917E+03   -0.10668E-04   -0.62463E-08   958   0.382E-04    0.169E-03
RMM:  28    -0.499702870802E+03   -0.14885E-04   -0.10192E-07   919   0.400E-04    0.127E-03
RMM:  29    -0.499702878528E+03   -0.77260E-05   -0.56134E-08   856   0.368E-04    0.138E-03
RMM:  30    -0.499702885324E+03   -0.67957E-05   -0.55152E-08   849   0.357E-04    0.991E-04
RMM:  31    -0.499702888519E+03   -0.31954E-05   -0.30336E-08   736   0.311E-04    0.934E-04
RMM:  32    -0.499702891681E+03   -0.31622E-05   -0.49869E-08   777   0.312E-04    0.767E-04
RMM:  33    -0.499702891980E+03   -0.29844E-06   -0.21576E-08   626   0.287E-04
  17 F= -.53499958E+03 E0= -.53500826E+03  d E =-.718585E-02  mag=    93.3971
       N       E                     dE             d eps       ncg     rms          rms(c)
DAV:   1    -0.499701033975E+03    0.18577E-02   -0.52816E+00  2116   0.275E+00    0.890E-01
RMM:   2    -0.499721652963E+03   -0.20619E-01   -0.82242E-02  2101   0.664E-01    0.145E+00
RMM:   3    -0.499745306193E+03   -0.23653E-01   -0.39108E-02  2209   0.389E-01    0.308E+00
RMM:   4    -0.499729742318E+03    0.15564E-01   -0.16552E-02  2100   0.258E-01    0.182E+00
RMM:   5    -0.499719687754E+03    0.10055E-01   -0.53098E-03  2102   0.150E-01    0.780E-01
RMM:   6    -0.499717644666E+03    0.20431E-02   -0.15264E-03  2102   0.798E-02    0.248E-01
RMM:   7    -0.499717467801E+03    0.17687E-03   -0.39463E-04  2101   0.402E-02    0.232E-01
RMM:   8    -0.499717152274E+03    0.31553E-03   -0.24270E-04  2103   0.306E-02    0.171E-01
RMM:   9    -0.499717120328E+03    0.31946E-04   -0.31333E-04  2101   0.343E-02    0.251E-01
RMM:  10    -0.499716933894E+03    0.18643E-03   -0.57804E-04  2101   0.432E-02    0.257E-01
RMM:  11    -0.499716698361E+03    0.23553E-03   -0.39502E-04  2109   0.384E-02    0.175E-01
RMM:  12    -0.499716635284E+03    0.63077E-04   -0.15451E-04  2103   0.242E-02    0.106E-01
RMM:  13    -0.499716613429E+03    0.21855E-04   -0.42398E-05  2096   0.131E-02    0.416E-02
RMM:  14    -0.499716634454E+03   -0.21025E-04   -0.12822E-05  2059   0.720E-03    0.439E-02
RMM:  15    -0.499716649164E+03   -0.14710E-04   -0.63979E-06  1866   0.526E-03    0.206E-02
RMM:  16    -0.499716674667E+03   -0.25503E-04   -0.42994E-06  1705   0.429E-03    0.231E-02
RMM:  17    -0.499716722539E+03   -0.47873E-04   -0.53865E-06  1977   0.423E-03    0.193E-02
RMM:  18    -0.499716757362E+03   -0.34823E-04   -0.29677E-06  1490   0.354E-03    0.153E-02
RMM:  19    -0.499716814308E+03   -0.56946E-04   -0.23509E-06  1274   0.326E-03    0.154E-02
RMM:  20    -0.499716841047E+03   -0.26739E-04   -0.12546E-06  1188   0.266E-03    0.856E-03
RMM:  21    -0.499716873986E+03   -0.32939E-04   -0.60448E-07  1184   0.171E-03    0.924E-03
RMM:  22    -0.499716912445E+03   -0.38459E-04   -0.39855E-07  1190   0.142E-03    0.513E-03
RMM:  23    -0.499716940628E+03   -0.28183E-04   -0.19562E-07  1179   0.874E-04    0.516E-03
RMM:  24    -0.499717001945E+03   -0.61317E-04   -0.30175E-07  1206   0.859E-04    0.478E-03
RMM:  25    -0.499717050751E+03   -0.48806E-04   -0.26011E-07  1186   0.858E-04    0.457E-03
RMM:  26    -0.499717142117E+03   -0.91366E-04   -0.61745E-07  1243   0.934E-04    0.518E-03
RMM:  27    -0.499717206140E+03   -0.64023E-04   -0.47846E-07  1224   0.959E-04    0.333E-03
RMM:  28    -0.499717274549E+03   -0.68409E-04   -0.62358E-07  1230   0.905E-04    0.451E-03
RMM:  29    -0.499717328175E+03   -0.53626E-04   -0.61229E-07  1211   0.926E-04    0.293E-03
RMM:  30    -0.499717351112E+03   -0.22937E-04   -0.26393E-07  1125   0.691E-04    0.275E-03
RMM:  31    -0.499717368384E+03   -0.17273E-04   -0.22028E-07  1106   0.606E-04    0.176E-03
RMM:  32    -0.499717376650E+03   -0.82657E-05   -0.14132E-07  1055   0.511E-04    0.202E-03
RMM:  33    -0.499717377320E+03   -0.67013E-06   -0.16917E-07  1006   0.477E-04
  18 F= -.53500402E+03 E0= -.53501282E+03  d E =-.444085E-02  mag=    93.3974
       N       E                     dE             d eps       ncg     rms          rms(c)
DAV:   1    -0.499719181203E+03   -0.18046E-02   -0.51306E-01  2156   0.857E-01    0.277E-01
RMM:   2    -0.499721195956E+03   -0.20148E-02   -0.79455E-03  2101   0.205E-01    0.464E-01
RMM:   3    -0.499723633817E+03   -0.24379E-02   -0.37635E-03  2211   0.120E-01    0.983E-01
RMM:   4    -0.499722158569E+03    0.14752E-02   -0.15990E-03  2099   0.804E-02    0.614E-01
RMM:   5    -0.499720955509E+03    0.12031E-02   -0.56772E-04  2101   0.493E-02    0.238E-01
RMM:   6    -0.499720780520E+03    0.17499E-03   -0.15231E-04  2103   0.253E-02    0.742E-02
RMM:   7    -0.499720764009E+03    0.16510E-04   -0.36432E-05  2096   0.122E-02    0.703E-02
RMM:   8    -0.499720726174E+03    0.37835E-04   -0.23682E-05  2096   0.943E-03    0.537E-02
RMM:   9    -0.499720718018E+03    0.81564E-05   -0.30866E-05  2096   0.108E-02    0.790E-02
RMM:  10    -0.499720679863E+03    0.38154E-04   -0.58473E-05  2100   0.137E-02    0.857E-02
RMM:  11    -0.499720641586E+03    0.38277E-04   -0.36239E-05  2099   0.117E-02    0.464E-02
RMM:  12    -0.499720637641E+03    0.39454E-05   -0.12564E-05  2061   0.684E-03    0.311E-02
RMM:  13    -0.499720636665E+03    0.97582E-06   -0.34268E-06  1643   0.382E-03
  19 F= -.53500418E+03 E0= -.53501302E+03  d E =-.459855E-02  mag=    93.3974
       N       E                     dE             d eps       ncg     rms          rms(c)
DAV:   1    -0.499721387326E+03   -0.74969E-03   -0.28972E+00  2120   0.206E+00    0.704E-01
RMM:   2    -0.499733358407E+03   -0.11971E-01   -0.42519E-02  2100   0.467E-01    0.114E+00
RMM:   3    -0.499752832453E+03   -0.19474E-01   -0.23244E-02  2170   0.301E-01    0.263E+00
RMM:   4    -0.499741893348E+03    0.10939E-01   -0.95813E-03  2101   0.198E-01    0.174E+00
RMM:   5    -0.499731367938E+03    0.10525E-01   -0.46120E-03  2100   0.142E-01    0.452E-01
RMM:   6    -0.499730753580E+03    0.61436E-03   -0.85016E-04  2100   0.579E-02    0.201E-01
RMM:   7    -0.499730651681E+03    0.10190E-03   -0.25818E-04  2099   0.324E-02    0.202E-01
RMM:   8    -0.499730414713E+03    0.23697E-03   -0.18488E-04  2104   0.276E-02    0.129E-01
RMM:   9    -0.499730397768E+03    0.16944E-04   -0.18966E-04  2100   0.273E-02    0.184E-01
RMM:  10    -0.499730300029E+03    0.97739E-04   -0.29584E-04  2102   0.317E-02    0.199E-01
RMM:  11    -0.499730170472E+03    0.12956E-03   -0.17326E-04  2102   0.257E-02    0.106E-01
RMM:  12    -0.499730164465E+03    0.60078E-05   -0.62827E-05  2100   0.155E-02    0.699E-02
RMM:  13    -0.499730164207E+03    0.25790E-06   -0.19413E-05  2095   0.885E-03    0.313E-02
RMM:  14    -0.499730183803E+03   -0.19597E-04   -0.64431E-06  1808   0.511E-03    0.316E-02
RMM:  15    -0.499730202213E+03   -0.18410E-04   -0.33893E-06  1616   0.404E-03    0.158E-02
RMM:  16    -0.499730226056E+03   -0.23843E-04   -0.21595E-06  1274   0.312E-03    0.152E-02
RMM:  17    -0.499730271004E+03   -0.44948E-04   -0.23166E-06  1261   0.306E-03    0.131E-02
RMM:  18    -0.499730302034E+03   -0.31031E-04   -0.16216E-06  1199   0.281E-03    0.113E-02
RMM:  19    -0.499730362098E+03   -0.60063E-04   -0.14095E-06  1226   0.240E-03    0.865E-03
RMM:  20    -0.499730384170E+03   -0.22072E-04   -0.62956E-07  1182   0.184E-03    0.648E-03
RMM:  21    -0.499730425929E+03   -0.41760E-04   -0.37336E-07  1190   0.124E-03    0.680E-03
RMM:  22    -0.499730454883E+03   -0.28953E-04   -0.23435E-07  1183   0.105E-03    0.414E-03
RMM:  23    -0.499730491776E+03   -0.36893E-04   -0.19240E-07  1180   0.753E-04    0.484E-03
RMM:  24    -0.499730562315E+03   -0.70540E-04   -0.37981E-07  1214   0.854E-04    0.448E-03
RMM:  25    -0.499730610068E+03   -0.47752E-04   -0.26928E-07  1180   0.806E-04    0.435E-03
RMM:  26    -0.499730693928E+03   -0.83860E-04   -0.62586E-07  1247   0.857E-04    0.415E-03
RMM:  27    -0.499730739376E+03   -0.45448E-04   -0.34808E-07  1186   0.822E-04    0.320E-03
RMM:  28    -0.499730800707E+03   -0.61331E-04   -0.64593E-07  1213   0.816E-04    0.359E-03
RMM:  29    -0.499730826847E+03   -0.26140E-04   -0.28749E-07  1138   0.733E-04    0.178E-03
RMM:  30    -0.499730848000E+03   -0.21153E-04   -0.27646E-07  1079   0.584E-04    0.256E-03
RMM:  31    -0.499730856589E+03   -0.85894E-05   -0.15595E-07  1060   0.552E-04    0.145E-03
RMM:  32    -0.499730857331E+03   -0.74198E-06   -0.11947E-07   951   0.428E-04
  20 F= -.53500643E+03 E0= -.53501521E+03  d E =-.224900E-02  mag=    93.3990
       N       E                     dE             d eps       ncg     rms          rms(c)
DAV:   1    -0.499731541315E+03   -0.68473E-03   -0.25354E-02  2164   0.193E-01    0.658E-02
RMM:   2    -0.499731647509E+03   -0.10619E-03   -0.37292E-04  2100   0.437E-02    0.111E-01
RMM:   3    -0.499731831207E+03   -0.18370E-03   -0.19657E-04  2175   0.276E-02    0.252E-01
RMM:   4    -0.499731717000E+03    0.11421E-03   -0.85752E-05  2097   0.187E-02    0.165E-01
RMM:   5    -0.499731626151E+03    0.90849E-04   -0.43448E-05  2096   0.138E-02    0.421E-02
RMM:   6    -0.499731624677E+03    0.14745E-05   -0.72780E-06  1840   0.543E-03    0.181E-02
RMM:   7    -0.499731624669E+03    0.76689E-08   -0.20725E-06  1356   0.314E-03
  21 F= -.53500645E+03 E0= -.53501523E+03  d E =-.227499E-02  mag=    93.3990
       N       E                     dE             d eps       ncg     rms          rms(c)
DAV:   1    -0.499733031451E+03   -0.14068E-02   -0.17768E+00  2104   0.162E+00    0.547E-01
RMM:   2    -0.499740022114E+03   -0.69907E-02   -0.25359E-02  2100   0.363E-01    0.807E-01
RMM:   3    -0.499756041663E+03   -0.16020E-01   -0.12990E-02  2186   0.223E-01    0.216E+00
RMM:   4    -0.499744657100E+03    0.11385E-01   -0.56758E-03  2102   0.152E-01    0.130E+00
RMM:   5    -0.499738994765E+03    0.56623E-02   -0.29695E-03  2100   0.114E-01    0.285E-01
RMM:   6    -0.499738757428E+03    0.23734E-03   -0.43414E-04  2101   0.409E-02    0.159E-01
RMM:   7    -0.499738689171E+03    0.68257E-04   -0.14665E-04  2101   0.241E-02    0.159E-01
RMM:   8    -0.499738547688E+03    0.14148E-03   -0.11419E-04  2102   0.215E-02    0.973E-02
RMM:   9    -0.499738532915E+03    0.14773E-04   -0.13585E-04  2097   0.229E-02    0.155E-01
RMM:  10    -0.499738439121E+03    0.93794E-04   -0.18387E-04  2103   0.253E-02    0.155E-01
RMM:  11    -0.499738357597E+03    0.81524E-04   -0.10202E-04  2099   0.197E-02    0.844E-02
RMM:  12    -0.499738343314E+03    0.14282E-04   -0.35006E-05  2096   0.115E-02    0.502E-02
RMM:  13    -0.499738343413E+03   -0.98684E-07   -0.11027E-05  1966   0.664E-03    0.281E-02
RMM:  14    -0.499738347591E+03   -0.41776E-05   -0.37335E-06  1665   0.406E-03    0.214E-02
RMM:  15    -0.499738355474E+03   -0.78836E-05   -0.20519E-06  1271   0.326E-03    0.130E-02
RMM:  16    -0.499738364178E+03   -0.87032E-05   -0.12969E-06  1180   0.251E-03    0.109E-02
RMM:  17    -0.499738384292E+03   -0.20114E-04   -0.13481E-06  1206   0.232E-03    0.948E-03
RMM:  18    -0.499738399066E+03   -0.14775E-04   -0.10310E-06  1184   0.225E-03    0.995E-03
RMM:  19    -0.499738422586E+03   -0.23520E-04   -0.76807E-07  1195   0.184E-03    0.725E-03
RMM:  20    -0.499738435117E+03   -0.12531E-04   -0.40798E-07  1171   0.147E-03    0.471E-03
RMM:  21    -0.499738454056E+03   -0.18939E-04   -0.21083E-07  1178   0.961E-04    0.452E-03
RMM:  22    -0.499738470724E+03   -0.16668E-04   -0.12617E-07  1159   0.781E-04    0.268E-03
RMM:  23    -0.499738484976E+03   -0.14252E-04   -0.65107E-08   990   0.486E-04    0.292E-03
RMM:  24    -0.499738517216E+03   -0.32240E-04   -0.12578E-07  1096   0.501E-04    0.242E-03
RMM:  25    -0.499738538545E+03   -0.21329E-04   -0.86276E-08  1040   0.475E-04    0.268E-03
RMM:  26    -0.499738580938E+03   -0.42394E-04   -0.21749E-07  1095   0.528E-04    0.237E-03
RMM:  27    -0.499738606538E+03   -0.25599E-04   -0.13445E-07  1060   0.510E-04    0.219E-03
RMM:  28    -0.499738643914E+03   -0.37376E-04   -0.25338E-07  1081   0.531E-04    0.208E-03
RMM:  29    -0.499738661788E+03   -0.17874E-04   -0.11692E-07   979   0.464E-04    0.152E-03
RMM:  30    -0.499738683458E+03   -0.21670E-04   -0.17280E-07   965   0.446E-04    0.149E-03
RMM:  31    -0.499738694267E+03   -0.10808E-04   -0.93175E-08   935   0.411E-04    0.109E-03
RMM:  32    -0.499738702879E+03   -0.86127E-05   -0.92232E-08   891   0.378E-04    0.970E-04
RMM:  33    -0.499738705240E+03   -0.23608E-05   -0.40707E-08   766   0.323E-04    0.687E-04
RMM:  34    -0.499738705374E+03   -0.13418E-06   -0.31599E-08   678   0.297E-04
  22 F= -.53500772E+03 E0= -.53501646E+03  d E =-.126503E-02  mag=    93.4035
