 vasp.5.4.4.18Apr17-6-g9f103f2a35 (build Jun 19 2019 11:58:18) complex          
  
 executed on             LinuxIFC date 2022.03.01  16:24:19
 running on   32 total cores
 distrk:  each k-point on   32 cores,    1 groups
 distr:  one band on NCORES_PER_BAND=   8 cores,    4 groups


--------------------------------------------------------------------------------------------------------


 INCAR:
 POTCAR:    PAW_PBE Pt 04Feb2005                  
 POTCAR:    PAW_PBE Pd 04Jan2005                  
 POTCAR:    PAW_PBE Ni 02Aug2007                  
 POTCAR:    PAW_PBE Co 02Aug2007                  
 POTCAR:    PAW_PBE Fe 06Sep2000                  
 POTCAR:    PAW_PBE Pt 04Feb2005                  
   VRHFIN =Pt: s1d9                                                             
   LEXCH  = PE                                                                  
   EATOM  =   729.1176 eV,   53.5886 Ry                                         
                                                                                
   TITEL  = PAW_PBE Pt 04Feb2005                                                
   LULTRA =        F    use ultrasoft PP ?                                      
   IUNSCR =        1    unscreen: 0-lin 1-nonlin 2-no                           
   RPACOR =    2.330    partial core radius                                     
   POMASS =  195.080; ZVAL   =   10.000    mass and valenz                      
   RCORE  =    2.600    outmost cutoff radius                                   
   RWIGS  =    2.750; RWIGS  =    1.455    wigner-seitz radius (au A)           
   ENMAX  =  230.283; ENMIN  =  172.712 eV                                      
   ICORE  =        3    local potential                                         
   LCOR   =        T    correct aug charges                                     
   LPAW   =        T    paw PP                                                  
   EAUG   =  358.966                                                            
   DEXC   =    0.000                                                            
   RMAX   =    2.658    core radius for proj-oper                               
   RAUG   =    1.300    factor for augmentation sphere                          
   RDEP   =    2.761    radius for radial grids                                 
   RDEPT  =    2.203    core radius for aug-charge                              
                                                                                
   Atomic configuration                                                         
   16 entries                                                                   
     n  l   j            E        occ.                                          
     1  0  0.50    -78401.1885   2.0000                                         
     2  0  0.50    -13770.7750   2.0000                                         
     2  1  1.50    -11931.0468   6.0000                                         
     3  0  0.50     -3234.7234   2.0000                                         
     3  1  1.50     -2699.2216   6.0000                                         
     3  2  2.50     -2119.5714  10.0000                                         
     4  0  0.50      -695.1528   2.0000                                         
     4  1  1.50      -519.6034   6.0000                                         
     4  2  2.50      -306.6786  10.0000                                         
     4  3  3.50       -70.1041  14.0000                                         
     5  0  0.50      -101.7747   2.0000                                         
     5  1  1.50       -55.9873   6.0000                                         
     5  2  2.50        -6.1423   9.0000                                         
     6  0  0.50        -5.6573   1.0000                                         
     6  1  1.50        -6.8029   0.0000                                         
     5  3  2.50        -1.3606   0.0000                                         
   Description                                                                  
     l       E           TYP  RCUT    TYP  RCUT                                 
     2     -6.1423404     23  2.500                                             
     2     -7.5029230     23  2.500                                             
     0     -5.6573207     23  2.500                                             
     0      0.7416693     23  2.500                                             
     1     -2.7211652     23  2.600                                             
     1     20.4087390     23  2.600                                             
     3     -1.3605826     23  2.500                                             
  local pseudopotential read in
  partial core-charges read in
  partial kinetic energy density read in
  atomic valenz-charges read in
  non local Contribution for L=           2  read in
    real space projection operators read in
  non local Contribution for L=           2  read in
    real space projection operators read in
  non local Contribution for L=           0  read in
    real space projection operators read in
  non local Contribution for L=           0  read in
    real space projection operators read in
  non local Contribution for L=           1  read in
    real space projection operators read in
  non local Contribution for L=           1  read in
    real space projection operators read in
    PAW grid and wavefunctions read in
 
   number of l-projection  operators is LMAX  =           6
   number of lm-projection operators is LMMAX =          18
 
 POTCAR:    PAW_PBE Pd 04Jan2005                  
   VRHFIN =Pd : s1 d9                                                           
   LEXCH  = PE                                                                  
   EATOM  =   809.7530 eV,   59.5152 Ry                                         
                                                                                
   TITEL  = PAW_PBE Pd 04Jan2005                                                
   LULTRA =        F    use ultrasoft PP ?                                      
   IUNSCR =        1    unscreen: 0-lin 1-nonlin 2-no                           
   RPACOR =    2.000    partial core radius                                     
   POMASS =  106.420; ZVAL   =   10.000    mass and valenz                      
   RCORE  =    2.600    outmost cutoff radius                                   
   RWIGS  =    2.710; RWIGS  =    1.434    wigner-seitz radius (au A)           
   ENMAX  =  250.925; ENMIN  =  188.194 eV                                      
   ICORE  =        3    local potential                                         
   LCOR   =        T    correct aug charges                                     
   LPAW   =        T    paw PP                                                  
   EAUG   =  416.230                                                            
   DEXC   =    0.000                                                            
   RMAX   =    2.653    core radius for proj-oper                               
   RAUG   =    1.300    factor for augmentation sphere                          
   RDEP   =    2.734    radius for radial grids                                 
   RDEPT  =    2.103    core radius for aug-charge                              
                                                                                
   Atomic configuration                                                         
   12 entries                                                                   
     n  l   j            E        occ.                                          
     1  0  0.50    -24164.6631   2.0000                                         
     2  0  0.50     -3530.9218   2.0000                                         
     2  1  1.50     -3165.6822   6.0000                                         
     3  0  0.50      -639.4577   2.0000                                         
     3  1  1.50      -519.4532   6.0000                                         
     3  2  2.50      -328.9757  10.0000                                         
     4  0  0.50       -88.7014   2.0000                                         
     4  1  1.50       -54.4540   6.0000                                         
     4  2  2.50        -6.6878   9.0000                                         
     5  0  0.50        -4.3543   1.0000                                         
     5  1  0.50        -1.3606   0.0000                                         
     4  3  2.50        -1.3606   0.0000                                         
   Description                                                                  
     l       E           TYP  RCUT    TYP  RCUT                                 
     2     -6.6878251     23  2.400                                             
     2     -8.0484077     23  2.400                                             
     0     -4.3542939     23  2.400                                             
     0      4.3406793     23  2.400                                             
     1     -4.0817478     23  2.600                                             
     1     15.8380318     23  2.600                                             
     3     -4.0817478     23  2.400                                             
  local pseudopotential read in
  partial core-charges read in
  partial kinetic energy density read in
  atomic valenz-charges read in
  non local Contribution for L=           2  read in
    real space projection operators read in
  non local Contribution for L=           2  read in
    real space projection operators read in
  non local Contribution for L=           0  read in
    real space projection operators read in
  non local Contribution for L=           0  read in
    real space projection operators read in
  non local Contribution for L=           1  read in
    real space projection operators read in
  non local Contribution for L=           1  read in
    real space projection operators read in
    PAW grid and wavefunctions read in
 
   number of l-projection  operators is LMAX  =           6
   number of lm-projection operators is LMMAX =          18
 
 POTCAR:    PAW_PBE Ni 02Aug2007                  
   VRHFIN =Ni:                                                                  
   LEXCH  = PE                                                                  
   EATOM  =  1077.6739 eV,   79.2068 Ry                                         
                                                                                
   TITEL  = PAW_PBE Ni 02Aug2007                                                
   LULTRA =        F    use ultrasoft PP ?                                      
   IUNSCR =        1    unscreen: 0-lin 1-nonlin 2-no                           
   RPACOR =    2.000    partial core radius                                     
   POMASS =   58.690; ZVAL   =   10.000    mass and valenz                      
   RCORE  =    2.300    outmost cutoff radius                                   
   RWIGS  =    2.430; RWIGS  =    1.286    wigner-seitz radius (au A)           
   ENMAX  =  269.532; ENMIN  =  202.149 eV                                      
   RCLOC  =    1.201    cutoff for local pot                                    
   LCOR   =        T    correct aug charges                                     
   LPAW   =        T    paw PP                                                  
   EAUG   =  544.565                                                            
   DEXC   =    0.000                                                            
   RMAX   =    2.357    core radius for proj-oper                               
   RAUG   =    1.300    factor for augmentation sphere                          
   RDEP   =    2.390    radius for radial grids                                 
   RDEPT  =    1.838    core radius for aug-charge                              
                                                                                
   Atomic configuration                                                         
    9 entries                                                                   
     n  l   j            E        occ.                                          
     1  0  0.50     -8206.4253   2.0000                                         
     2  0  0.50      -976.1748   2.0000                                         
     2  1  1.50      -839.0571   6.0000                                         
     3  0  0.50      -105.9991   2.0000                                         
     3  1  1.50       -66.4603   6.0000                                         
     3  2  2.50        -4.6458   9.0000                                         
     4  0  0.50        -4.4926   1.0000                                         
     4  1  1.50        -4.0817   0.0000                                         
     4  3  2.50        -1.3606   0.0000                                         
   Description                                                                  
     l       E           TYP  RCUT    TYP  RCUT                                 
     2     -4.6457903     23  2.300                                             
     2     -6.0063729     23  2.300                                             
     0     -4.4925590     23  2.300                                             
     0      5.0102601     23  2.300                                             
     1     -2.7211652     23  2.300                                             
     1     16.5183231     23  2.300                                             
  local pseudopotential read in
  partial core-charges read in
  partial kinetic energy density read in
  atomic valenz-charges read in
  non local Contribution for L=           2  read in
    real space projection operators read in
  non local Contribution for L=           2  read in
    real space projection operators read in
  non local Contribution for L=           0  read in
    real space projection operators read in
  non local Contribution for L=           0  read in
    real space projection operators read in
  non local Contribution for L=           1  read in
    real space projection operators read in
  non local Contribution for L=           1  read in
    real space projection operators read in
    PAW grid and wavefunctions read in
 
   number of l-projection  operators is LMAX  =           6
   number of lm-projection operators is LMMAX =          18
 
 POTCAR:    PAW_PBE Co 02Aug2007                  
   VRHFIN =Co: d8 s1                                                            
   LEXCH  = PE                                                                  
   EATOM  =   813.3670 eV,   59.7808 Ry                                         
                                                                                
   TITEL  = PAW_PBE Co 02Aug2007                                                
   LULTRA =        F    use ultrasoft PP ?                                      
   IUNSCR =        1    unscreen: 0-lin 1-nonlin 2-no                           
   RPACOR =    2.000    partial core radius                                     
   POMASS =   58.933; ZVAL   =    9.000    mass and valenz                      
   RCORE  =    2.300    outmost cutoff radius                                   
   RWIGS  =    2.460; RWIGS  =    1.302    wigner-seitz radius (au A)           
   ENMAX  =  267.968; ENMIN  =  200.976 eV                                      
   RCLOC  =    1.203    cutoff for local pot                                    
   LCOR   =        T    correct aug charges                                     
   LPAW   =        T    paw PP                                                  
   EAUG   =  477.818                                                            
   DEXC   =    0.000                                                            
   RMAX   =    2.360    core radius for proj-oper                               
   RAUG   =    1.300    factor for augmentation sphere                          
   RDEP   =    2.393    radius for radial grids                                 
   RDEPT  =    1.864    core radius for aug-charge                              
                                                                                
   Atomic configuration                                                         
    9 entries                                                                   
     n  l   j            E        occ.                                          
     1  0  0.50     -7587.6674   2.0000                                         
     2  0  0.50      -893.6084   2.0000                                         
     2  1  1.50      -764.5805   6.0000                                         
     3  0  0.50       -97.5973   2.0000                                         
     3  1  1.50       -60.9648   6.0000                                         
     3  2  2.50        -4.2382   8.0000                                         
     4  0  0.50        -4.3746   1.0000                                         
     4  1  1.50        -4.0817   0.0000                                         
     4  3  2.50        -1.3606   0.0000                                         
   Description                                                                  
     l       E           TYP  RCUT    TYP  RCUT                                 
     2     -4.2382362     23  2.300                                             
     2     -5.5988188     23  2.300                                             
     0     -4.3745797     23  2.300                                             
     0      5.7660125     23  2.300                                             
     1     -2.7211652     23  2.300                                             
     1     16.9860234     23  2.300                                             
  local pseudopotential read in
  partial core-charges read in
  partial kinetic energy density read in
  atomic valenz-charges read in
  non local Contribution for L=           2  read in
    real space projection operators read in
  non local Contribution for L=           2  read in
    real space projection operators read in
  non local Contribution for L=           0  read in
    real space projection operators read in
  non local Contribution for L=           0  read in
    real space projection operators read in
  non local Contribution for L=           1  read in
    real space projection operators read in
  non local Contribution for L=           1  read in
    real space projection operators read in
    PAW grid and wavefunctions read in
 
   number of l-projection  operators is LMAX  =           6
   number of lm-projection operators is LMMAX =          18
 
 POTCAR:    PAW_PBE Fe 06Sep2000                  
   VRHFIN =Fe:  d7 s1                                                           
   LEXCH  = PE                                                                  
   EATOM  =   594.3153 eV,   43.6809 Ry                                         
                                                                                
   TITEL  = PAW_PBE Fe 06Sep2000                                                
   LULTRA =        F    use ultrasoft PP ?                                      
   IUNSCR =        1    unscreen: 0-lin 1-nonlin 2-no                           
   RPACOR =    2.000    partial core radius                                     
   POMASS =   55.847; ZVAL   =    8.000    mass and valenz                      
   RCORE  =    2.300    outmost cutoff radius                                   
   RWIGS  =    2.460; RWIGS  =    1.302    wigner-seitz radius (au A)           
   ENMAX  =  267.882; ENMIN  =  200.911 eV                                      
   RCLOC  =    1.701    cutoff for local pot                                    
   LCOR   =        T    correct aug charges                                     
   LPAW   =        T    paw PP                                                  
   EAUG   =  511.368                                                            
   DEXC   =    0.000                                                            
   RMAX   =    2.356    core radius for proj-oper                               
   RAUG   =    1.300    factor for augmentation sphere                          
   RDEP   =    2.442    radius for radial grids                                 
   RDEPT  =    1.890    core radius for aug-charge                              
                                                                                
   Atomic configuration                                                         
    9 entries                                                                   
     n  l   j            E        occ.                                          
     1  0  0.50     -6993.8440   2.0000                                         
     2  0  0.50      -814.6047   2.0000                                         
     2  1  1.50      -693.3689   6.0000                                         
     3  0  0.50       -89.4732   2.0000                                         
     3  1  1.50       -55.6373   6.0000                                         
     3  2  2.50        -3.8151   7.0000                                         
     4  0  0.50        -4.2551   1.0000                                         
     4  1  1.50        -3.4015   0.0000                                         
     4  3  2.50        -1.3606   0.0000                                         
   Description                                                                  
     l       E           TYP  RCUT    TYP  RCUT                                 
     2     -3.8151135     23  2.300                                             
     2     -5.1756961     23  2.300                                             
     0     -4.2550963     23  2.300                                             
     0      7.2035603     23  2.300                                             
     1     -2.7211652     23  2.300                                             
     1     18.4316424     23  2.300                                             
  local pseudopotential read in
  partial core-charges read in
  partial kinetic energy density read in
  atomic valenz-charges read in
  non local Contribution for L=           2  read in
    real space projection operators read in
  non local Contribution for L=           2  read in
    real space projection operators read in
  non local Contribution for L=           0  read in
    real space projection operators read in
  non local Contribution for L=           0  read in
    real space projection operators read in
  non local Contribution for L=           1  read in
    real space projection operators read in
  non local Contribution for L=           1  read in
    real space projection operators read in
    PAW grid and wavefunctions read in
 
   number of l-projection  operators is LMAX  =           6
   number of lm-projection operators is LMMAX =          18
 
 Optimization of the real space projectors (new method)

 maximal supplied QI-value         = 14.36
 optimisation between [QCUT,QGAM] = [ 11.35, 22.84] = [ 36.05,146.02] Ry 
 Optimized for a Real-space Cutoff    1.52 Angstroem

   l    n(q)    QCUT    max X(q) W(low)/X(q) W(high)/X(q)  e(spline) 
   2      9    11.346    66.195    0.18E-03    0.31E-04    0.24E-06
   2      9    11.346    64.643    0.18E-03    0.31E-04    0.25E-06
   0     10    11.346    95.520    0.43E-04    0.40E-05    0.18E-06
   0     10    11.346    63.403    0.42E-04    0.39E-05    0.17E-06
   1     10    11.346    19.961    0.83E-04    0.43E-04    0.12E-06
   1     10    11.346    13.289    0.69E-04    0.37E-04    0.98E-07
 Optimization of the real space projectors (new method)

 maximal supplied QI-value         = 14.36
 optimisation between [QCUT,QGAM] = [ 11.35, 22.84] = [ 36.05,146.02] Ry 
 Optimized for a Real-space Cutoff    1.47 Angstroem

   l    n(q)    QCUT    max X(q) W(low)/X(q) W(high)/X(q)  e(spline) 
   2      9    11.346    59.108    0.74E-04    0.81E-04    0.26E-06
   2      9    11.346    58.101    0.74E-04    0.83E-04    0.27E-06
   0     10    11.346   102.235    0.26E-04    0.31E-04    0.16E-06
   0     10    11.346    58.388    0.23E-04    0.29E-04    0.15E-06
   1     10    11.346    22.191    0.23E-03    0.26E-03    0.14E-06
   1     10    11.346    15.590    0.19E-03    0.22E-03    0.12E-06
 Optimization of the real space projectors (new method)

 maximal supplied QI-value         = 16.25
 optimisation between [QCUT,QGAM] = [ 11.38, 22.75] = [ 36.24,144.96] Ry 
 Optimized for a Real-space Cutoff    1.47 Angstroem

   l    n(q)    QCUT    max X(q) W(low)/X(q) W(high)/X(q)  e(spline) 
   2      9    11.376    60.317    0.17E-03    0.16E-04    0.16E-06
   2      9    11.376    55.921    0.17E-03    0.16E-04    0.17E-06
   0     10    11.376    51.690    0.45E-04    0.60E-04    0.21E-06
   0     10    11.376    30.015    0.37E-04    0.55E-04    0.19E-06
   1     10    11.376    18.849    0.83E-04    0.11E-03    0.92E-07
   1     10    11.376    14.624    0.69E-04    0.92E-04    0.82E-07
 Optimization of the real space projectors (new method)

 maximal supplied QI-value         = 16.25
 optimisation between [QCUT,QGAM] = [ 11.38, 22.75] = [ 36.24,144.96] Ry 
 Optimized for a Real-space Cutoff    1.43 Angstroem

   l    n(q)    QCUT    max X(q) W(low)/X(q) W(high)/X(q)  e(spline) 
   2      9    11.376    65.824    0.18E-03    0.28E-04    0.14E-06
   2      9    11.376    61.429    0.18E-03    0.29E-04    0.14E-06
   0     10    11.376    56.174    0.51E-04    0.12E-03    0.20E-06
   0     10    11.376    31.263    0.46E-04    0.11E-03    0.18E-06
   1      9    11.376    19.828    0.23E-03    0.17E-03    0.10E-06
   1      9    11.376    15.139    0.20E-03    0.14E-03    0.89E-07
 Optimization of the real space projectors (new method)

 maximal supplied QI-value         = 16.25
 optimisation between [QCUT,QGAM] = [ 11.38, 22.75] = [ 36.24,144.96] Ry 
 Optimized for a Real-space Cutoff    1.52 Angstroem

   l    n(q)    QCUT    max X(q) W(low)/X(q) W(high)/X(q)  e(spline) 
   2      9    11.376    80.901    0.22E-03    0.86E-04    0.27E-06
   2      9    11.376    75.754    0.23E-03    0.87E-04    0.27E-06
   0     10    11.376    58.752    0.56E-04    0.38E-04    0.25E-06
   0     10    11.376    30.679    0.47E-04    0.35E-04    0.23E-06
   1     10    11.376    17.977    0.50E-04    0.42E-04    0.12E-06
   1     10    11.376    13.559    0.42E-04    0.37E-04    0.11E-06
  PAW_PBE Pt 04Feb2005                  :
 energy of atom  1       EATOM= -729.1176
 kinetic energy error for atom=    0.0039 (will be added to EATOM!!)
  PAW_PBE Pd 04Jan2005                  :
 energy of atom  2       EATOM= -809.7530
 kinetic energy error for atom=    0.0049 (will be added to EATOM!!)
  PAW_PBE Ni 02Aug2007                  :
 energy of atom  3       EATOM=-1077.6739
 kinetic energy error for atom=    0.0030 (will be added to EATOM!!)
  PAW_PBE Co 02Aug2007                  :
 energy of atom  4       EATOM= -813.3670
 kinetic energy error for atom=    0.0028 (will be added to EATOM!!)
  PAW_PBE Fe 06Sep2000                  :
 energy of atom  5       EATOM= -594.3153
 kinetic energy error for atom=    0.0026 (will be added to EATOM!!)
 
 
 POSCAR: Pt   Pd   Ni   Co   Fe                  
  positions in direct lattice
  No initial velocities read in
 exchange correlation table for  LEXCH =        8
   RHO(1)=    0.500       N(1)  =     2000
   RHO(2)=  100.500       N(2)  =     4000
 


--------------------------------------------------------------------------------------------------------


 ion  position               nearest neighbor table
   1  0.852  0.863  0.374-  19 2.47  24 2.49  76 2.52  38 2.54  17 2.60  48 2.60  61 2.65  47 2.66
                            37 2.69  64 2.69  23 2.69  77 2.72
   2  0.434  0.543  0.469-  33 2.61  52 2.62  61 2.63  20 2.65   3 2.69  40 2.69  31 2.71  24 2.71
                            29 2.76
   3  0.344  0.622  0.372-   4 2.46  68 2.47  44 2.48  72 2.51  37 2.53  36 2.53  33 2.54  67 2.56
                            52 2.65   2 2.69  31 2.72  24 2.76
   4  0.343  0.859  0.376-  72 2.41  79 2.42   3 2.46  52 2.47  48 2.51  65 2.55   8 2.56  66 2.58
                            37 2.58  44 2.60  59 2.67  60 2.70
   5  0.020  0.699  0.284-  72 2.43  19 2.47  44 2.49  64 2.50  58 2.52   8 2.52  48 2.52  74 2.52
                            30 2.57  47 2.58  71 2.65  55 2.69
   6  0.769  0.205  0.278-  54 2.48  16 2.57  74 2.58  80 2.59  58 2.60  23 2.64  21 2.65  43 2.67
                            75 2.68  59 2.70  17 2.78  65 2.83
   7  0.850  0.874  0.094-  41 2.51  70 2.52  63 2.53  62 2.55  49 2.55  57 2.58  11 2.62  78 2.64
                            55 2.65
   8  0.263  0.945  0.285-  64 2.50  66 2.50   5 2.52  48 2.54  59 2.54  21 2.56  30 2.56   4 2.56
                            26 2.57  44 2.59  45 2.71  69 2.75
   9  0.362  0.871  0.094-  34 2.52  62 2.52  35 2.53  46 2.57  69 2.58  28 2.59  12 2.65  78 2.69
                            30 2.76
  10  0.513  0.448  0.278-  39 2.57  26 2.59  21 2.60  67 2.61  73 2.61  31 2.63  47 2.63  13 2.64
                            74 2.66  36 2.66  24 2.67  53 2.75
  11  0.845  0.617  0.095-  73 2.52  32 2.55  55 2.57  57 2.61   7 2.62  78 2.64  71 2.69  25 2.70
                            12 2.71
  12  0.105  0.615  0.097-  46 2.55  51 2.57  71 2.59  42 2.61   9 2.65  78 2.66  25 2.67  30 2.67
                            11 2.71
  13  0.437  0.543  0.184-  46 2.52  35 2.53  49 2.54  57 2.56  73 2.59  18 2.59  67 2.61  51 2.62
                            10 2.64  22 2.68  39 2.73  36 2.74
  14  0.936  0.543  0.466-  76 2.53  20 2.56  33 2.58  79 2.60  43 2.60  19 2.62  72 2.66  50 2.68
                            15 2.71
  15  0.680  0.273  0.471-  50 2.46  27 2.46  60 2.51  65 2.57  29 2.57  53 2.63  20 2.65  14 2.71
                            43 2.72
  16  0.019  0.209  0.280-  36 2.52  58 2.54  68 2.57  54 2.57   6 2.57  22 2.59  26 2.64  23 2.67
                            41 2.71  38 2.72  17 2.75  64 2.79
  17  0.845  0.110  0.379-  50 2.56  37 2.58  77 2.59   1 2.60  27 2.61  65 2.66  38 2.67  43 2.67
                            23 2.72  68 2.75  16 2.75   6 2.78
  18  0.352  0.365  0.095-  28 2.58  32 2.58  13 2.59  70 2.61  46 2.61  39 2.61  22 2.62  57 2.62
                            42 2.63
  19  0.859  0.628  0.371-  48 2.42   5 2.47   1 2.47  72 2.56  24 2.56  47 2.57  76 2.58  14 2.62
                            43 2.62  74 2.63  20 2.71  53 2.72
  20  0.684  0.531  0.467-  14 2.56  53 2.59  29 2.60  76 2.62  24 2.63   2 2.65  15 2.65  19 2.71
                            61 2.72
  21  0.509  0.194  0.280-  26 2.53  39 2.55   8 2.56  69 2.57  59 2.59  10 2.60  66 2.60  80 2.63
                             6 2.65  53 2.66  65 2.71  74 2.72
  22  0.180  0.279  0.187-  42 2.54  41 2.58  45 2.58  16 2.59  70 2.59  51 2.59  18 2.62  26 2.62
                            54 2.64  39 2.67  13 2.68  36 2.70
  23  0.764  0.947  0.278-  49 2.58  41 2.60  67 2.61  47 2.61  75 2.62   6 2.64  59 2.65  16 2.67
                             1 2.69  64 2.70  17 2.72  37 2.74
  24  0.609  0.622  0.373-   1 2.49  19 2.56  37 2.57  47 2.62  20 2.63  67 2.63  31 2.66  53 2.67
                            10 2.67   2 2.71  61 2.75   3 2.76
  25  0.846  0.357  0.097-  34 2.49  63 2.50  54 2.53  80 2.53  42 2.58  32 2.59  71 2.62  12 2.67
                            11 2.70
  26  0.265  0.194  0.280-  21 2.53  64 2.56   8 2.57  45 2.58  10 2.59  66 2.61  22 2.62  38 2.63
                            31 2.63  39 2.63  16 2.64  36 2.73
  27  0.678  0.034  0.472-  15 2.46  52 2.46  50 2.49  60 2.49  61 2.52  65 2.59  17 2.61  77 2.63
                            37 2.66
  28  0.355  0.118  0.094-  32 2.55  69 2.57  39 2.57  78 2.58  18 2.58   9 2.59  70 2.61  45 2.61
                            34 2.62
  29  0.434  0.276  0.470-  60 2.54  15 2.57  56 2.57  20 2.60  53 2.61  66 2.66  40 2.68  31 2.68
                             2 2.76
  30  0.185  0.786  0.192-  45 2.55   8 2.56  44 2.56   5 2.57  69 2.59  71 2.60  51 2.63  35 2.63
                            55 2.66  12 2.67  78 2.67   9 2.76
  31  0.352  0.364  0.373-  66 2.60  53 2.60  68 2.61  38 2.62  26 2.63  10 2.63  36 2.66  24 2.66
                            29 2.68   2 2.71   3 2.72  40 2.72
  32  0.601  0.366  0.098-  80 2.49  39 2.52  73 2.55  28 2.55  11 2.55  18 2.58  25 2.59  34 2.64
                            57 2.71
  33  0.181  0.538  0.463-  79 2.52   3 2.54  68 2.54  14 2.58  72 2.59   2 2.61  52 2.66  40 2.67
                            50 2.71
  34  0.606  0.114  0.093-  25 2.49  63 2.49   9 2.52  75 2.53  80 2.56  62 2.58  69 2.62  28 2.62
                            32 2.64
  35  0.439  0.788  0.185-  62 2.52  13 2.53   9 2.53  75 2.53  59 2.57  69 2.58  46 2.58  49 2.59
                            30 2.63  67 2.63  51 2.70  44 2.79
  36  0.261  0.456  0.282-  68 2.46  44 2.47  58 2.48  16 2.52  67 2.52  51 2.53   3 2.53  31 2.66
                            10 2.66  22 2.70  26 2.73  13 2.74
  37  0.593  0.861  0.377-  52 2.45   3 2.53  24 2.57  65 2.58  17 2.58   4 2.58  61 2.60  67 2.65
                            27 2.66   1 2.69  59 2.71  23 2.74
  38  0.101  0.107  0.375-  66 2.53   1 2.54  48 2.60  31 2.62  26 2.63  56 2.66  17 2.67  40 2.67
                            64 2.68  77 2.71  16 2.72  68 2.76
  39  0.437  0.279  0.187-  80 2.49  69 2.51  32 2.52  21 2.55  28 2.57  10 2.57  45 2.58  18 2.61
                            26 2.63  73 2.63  22 2.67  13 2.73
  40  0.177  0.278  0.470-  77 2.53  50 2.67  38 2.67  33 2.67  29 2.68  56 2.68   2 2.69  31 2.72
                            68 2.73
  41  0.929  0.030  0.185-  63 2.49  75 2.50   7 2.51  49 2.51  70 2.57  22 2.58  55 2.60  54 2.60
                            23 2.60  45 2.64  64 2.68  16 2.71
  42  0.095  0.358  0.096-  63 2.53  22 2.54  70 2.58  25 2.58  54 2.60  12 2.61  18 2.63  51 2.64
                            46 2.67
  43  0.856  0.373  0.374-  53 2.58  68 2.59  14 2.60  72 2.61  19 2.62  58 2.63  50 2.63  74 2.66
                            17 2.67   6 2.67  15 2.72  65 2.75
  44  0.256  0.691  0.283-  58 2.42  72 2.42  36 2.47   3 2.48   5 2.49  30 2.56  51 2.58   8 2.59
                            67 2.59  59 2.60   4 2.60  35 2.79
  45  0.184  0.032  0.186-  78 2.53  64 2.55  30 2.55  70 2.56  39 2.58  22 2.58  26 2.58  69 2.60
                            28 2.61  41 2.64  55 2.65   8 2.71
  46  0.352  0.618  0.094-  57 2.51  13 2.52  62 2.54  12 2.55   9 2.57  35 2.58  18 2.61  42 2.67
                            51 2.71
  47  0.772  0.699  0.278-  55 2.45  74 2.52  64 2.53  73 2.53  19 2.57   5 2.58  49 2.61  23 2.61
                            24 2.62  10 2.63   1 2.66  67 2.73
  48  0.100  0.856  0.375-  72 2.39  19 2.42  79 2.51   4 2.51   5 2.52  76 2.53   8 2.54  66 2.58
                            38 2.60   1 2.60  56 2.64  64 2.68
  49  0.687  0.785  0.185-  55 2.51  41 2.51  73 2.52  13 2.54  75 2.54  62 2.55   7 2.55  57 2.57
                            23 2.58  35 2.59  47 2.61  67 2.71
  50  0.919  0.275  0.470-  15 2.46  27 2.49  17 2.56  77 2.57  43 2.63  40 2.67  14 2.68  33 2.71
                            68 2.83
  51  0.177  0.528  0.190-  58 2.48  71 2.49  36 2.53  54 2.57  12 2.57  44 2.58  22 2.59  13 2.62
                            30 2.63  42 2.64  35 2.70  46 2.71
  52  0.437  0.797  0.465-  60 2.43  37 2.45  27 2.46   4 2.47  79 2.47   2 2.62  61 2.63   3 2.65
                            33 2.66
  53  0.600  0.359  0.376-  65 2.54  43 2.58  20 2.59  66 2.60  31 2.60  29 2.61  15 2.63  21 2.66
                            24 2.67  19 2.72  74 2.75  10 2.75
  54  0.927  0.280  0.188-   6 2.48  75 2.52  71 2.53  25 2.53  63 2.53  51 2.57  16 2.57  80 2.59
                            42 2.60  41 2.60  58 2.62  22 2.64
  55  0.925  0.778  0.189-  47 2.45  73 2.46  49 2.51  64 2.51  11 2.57  41 2.60  71 2.64  45 2.65
                             7 2.65  30 2.66  78 2.66   5 2.69
  56  0.187  0.024  0.470-  79 2.49  76 2.53  60 2.55  29 2.57  66 2.63  48 2.64  38 2.66  40 2.68
                            77 2.71
  57  0.598  0.627  0.092-  62 2.43  46 2.51  13 2.56  49 2.57   7 2.58  11 2.61  18 2.62  73 2.66
                            32 2.71
  58  0.022  0.456  0.280-  44 2.42  51 2.48  36 2.48  71 2.51   5 2.52  16 2.54  68 2.56  74 2.57
                            72 2.59   6 2.60  54 2.62  43 2.63
  59  0.507  0.944  0.279-   8 2.54  67 2.56  35 2.57  21 2.59  69 2.59  44 2.60  23 2.65   4 2.67
                             6 2.70  37 2.71  65 2.72  75 2.74
  60  0.436  0.031  0.473-  52 2.43  27 2.49  15 2.51  79 2.51  29 2.54  65 2.55  56 2.55   4 2.70
                            66 2.72
  61  0.690  0.797  0.471-  77 2.46  27 2.52  37 2.60  76 2.61   2 2.63  52 2.63   1 2.65  20 2.72
                            24 2.75
  62  0.600  0.862  0.095-  57 2.43  75 2.51  35 2.52   9 2.52  46 2.54   7 2.55  49 2.55  34 2.58
                            63 2.58
  63  0.846  0.116  0.098-  75 2.40  41 2.49  34 2.49  25 2.50   7 2.53  54 2.53  42 2.53  62 2.58
                            70 2.66
  64  0.021  0.941  0.278-   8 2.50   5 2.50  55 2.51  47 2.53  45 2.55  26 2.56  41 2.68  48 2.68
                            38 2.68   1 2.69  23 2.70  16 2.79
  65  0.588  0.108  0.379-  66 2.52  53 2.54  60 2.55   4 2.55  15 2.57  37 2.58  27 2.59  17 2.66
                            21 2.71  59 2.72  43 2.75   6 2.83
  66  0.346  0.109  0.374-   8 2.50  65 2.52  38 2.53  48 2.58   4 2.58  31 2.60  53 2.60  21 2.60
                            26 2.61  56 2.63  29 2.66  60 2.72
  67  0.509  0.697  0.281-  36 2.52   3 2.56  59 2.56  44 2.59  10 2.61  23 2.61  13 2.61  24 2.63
                            35 2.63  37 2.65  49 2.71  47 2.73
  68  0.108  0.378  0.371-  36 2.46   3 2.47  33 2.54  58 2.56  16 2.57  43 2.59  31 2.61  72 2.61
                            40 2.73  17 2.75  38 2.76  50 2.83
  69  0.436  0.036  0.186-  80 2.47  39 2.51  28 2.57  21 2.57   9 2.58  35 2.58  59 2.59  30 2.59
                            45 2.60  34 2.62  75 2.64   8 2.75
  70  0.100  0.111  0.095-  78 2.51   7 2.52  45 2.56  41 2.57  42 2.58  22 2.59  18 2.61  28 2.61
                            63 2.66
  71  0.938  0.530  0.189-  51 2.49  74 2.51  58 2.51  54 2.53  12 2.59  30 2.60  25 2.62  55 2.64
                             5 2.65  80 2.66  73 2.68  11 2.69
  72  0.106  0.629  0.371-  48 2.39   4 2.41  44 2.42   5 2.43   3 2.51  19 2.56  79 2.57  33 2.59
                            58 2.59  68 2.61  43 2.61  14 2.66
  73  0.685  0.541  0.186-  55 2.46  49 2.52  11 2.52  47 2.53  32 2.55  13 2.59  10 2.61  74 2.61
                            39 2.63  57 2.66  71 2.68  80 2.69
  74  0.774  0.457  0.278-  71 2.51  47 2.52   5 2.52  58 2.57   6 2.58  73 2.61  19 2.63  10 2.66
                            80 2.66  43 2.66  21 2.72  53 2.75
  75  0.688  0.031  0.183-  63 2.40  41 2.50  62 2.51  54 2.52  34 2.53  35 2.53  49 2.54  80 2.61
                            23 2.62  69 2.64   6 2.68  59 2.74
  76  0.936  0.787  0.465-   1 2.52  56 2.53  14 2.53  48 2.53  77 2.58  19 2.58  61 2.61  20 2.62
                            79 2.68
  77  0.931  0.033  0.472-  61 2.46  40 2.53  50 2.57  76 2.58  17 2.59  27 2.63  56 2.71  38 2.71
                             1 2.72
  78  0.103  0.870  0.096-  70 2.51  45 2.53  28 2.58   7 2.64  11 2.64  12 2.66  55 2.66  30 2.67
                             9 2.69
  79  0.194  0.788  0.464-   4 2.42  52 2.47  56 2.49  48 2.51  60 2.51  33 2.52  72 2.57  14 2.60
                            76 2.68
  80  0.675  0.276  0.185-  69 2.47  32 2.49  39 2.49  25 2.53  34 2.56  54 2.59   6 2.59  75 2.61
                            21 2.63  71 2.66  74 2.66  73 2.69
 
  LATTYP: Found a triclinic cell.
 ALAT       =    10.3800515379
 B/A-ratio  =     0.9972311160
 C/A-ratio  =     2.2079433509
 COS(alpha) =     0.0012806095
 COS(beta)  =     0.0018689548
 COS(gamma) =     0.5051972138
  
  Lattice vectors:
  
 A1 = (   8.9788379998,  -5.2082127747,  -0.0213961858)
 A2 = (   0.0412479304, -10.3512200080,  -0.0130202834)
 A3 = (  -0.0054108899,  -0.0005434300, -22.9185651302)


Analysis of symmetry for initial positions (statically):
=====================================================================
 Subroutine PRICEL returns:
 Original cell was already a primitive cell.
 

 Routine SETGRP: Setting up the symmetry group for a 
 triclinic supercell.


 Subroutine GETGRP returns: Found  1 space group operations
 (whereof  1 operations were pure point group operations)
 out of a pool of  2 trial point group operations.


The static configuration has the point symmetry C_1 .


Analysis of symmetry for dynamics (positions and initial velocities):
=====================================================================
 Subroutine PRICEL returns:
 Original cell was already a primitive cell.
 

 Routine SETGRP: Setting up the symmetry group for a 
 triclinic supercell.


 Subroutine GETGRP returns: Found  1 space group operations
 (whereof  1 operations were pure point group operations)
 out of a pool of  2 trial point group operations.


The dynamic configuration has the point symmetry C_1 .


Analysis of constrained symmetry for selective dynamics:
=====================================================================
 Subroutine PRICEL returns:
 Original cell was already a primitive cell.
 

 Routine SETGRP: Setting up the symmetry group for a 
 triclinic supercell.


 Subroutine GETGRP returns: Found  1 space group operations
 (whereof  1 operations were pure point group operations)
 out of a pool of  2 trial point group operations.


The constrained configuration has the point symmetry C_1 .


Analysis of structural, dynamic, and magnetic symmetry:
=====================================================================
 Subroutine PRICEL returns:
 Original cell was already a primitive cell.
 

 Routine SETGRP: Setting up the symmetry group for a 
 triclinic supercell.


 Subroutine GETGRP returns: Found  1 space group operations
 (whereof  1 operations were pure point group operations)
 out of a pool of  2 trial point group operations.


The magnetic configuration has the point symmetry C_1 .


 Subroutine INISYM returns: Found  1 space group operations
 (whereof  1 operations are pure point group operations),
 and found     1 'primitive' translations

 
 
 KPOINTS: Automatic mesh                          

Automatic generation of k-mesh.
Space group operators:
 irot       det(A)        alpha          n_x          n_y          n_z        tau_x        tau_y        tau_z
    1     1.000000     0.000001     1.000000     0.000000     0.000000     0.000000     0.000000     0.000000
 
 Subroutine IBZKPT returns following result:
 ===========================================
 
 Found      1 irreducible k-points:
 
 Following reciprocal coordinates:
            Coordinates               Weight
  0.000000  0.000000  0.000000      1.000000
 
 Following cartesian coordinates:
            Coordinates               Weight
  0.000000  0.000000  0.000000      1.000000
 


--------------------------------------------------------------------------------------------------------




 Dimension of arrays:
   k-points           NKPTS =      1   k-points in BZ     NKDIM =      1   number of bands    NBANDS=    524
   number of dos      NEDOS =    301   number of ions     NIONS =     80
   non local maximal  LDIM  =      6   non local SUM 2l+1 LMDIM =     18
   total plane-waves  NPLWV = ******
   max r-space proj   IRMAX =   7472   max aug-charges    IRDMAX=  30839
   dimension x,y,z NGX =    80 NGY =   80 NGZ =  168
   dimension x,y,z NGXF=   160 NGYF=  160 NGZF=  336
   support grid    NGXF=   160 NGYF=  160 NGZF=  336
   ions per type =              14  17  16  18  15
   NGX,Y,Z   is equivalent  to a cutoff of  12.81, 12.85, 12.19 a.u.
   NGXF,Y,Z  is equivalent  to a cutoff of  25.63, 25.70, 24.37 a.u.

 SYSTEM =  ML                                      
 POSCAR =  Pt   Pd   Ni   Co   Fe                  

 Startparameter for this run:
   NWRITE =      2    write-flag & timer
   PREC   = accura    normal or accurate (medium, high low for compatibility)
   ISTART =      0    job   : 0-new  1-cont  2-samecut
   ICHARG =      2    charge: 1-file 2-atom 10-const
   ISPIN  =      2    spin polarized calculation?
   LNONCOLLINEAR =      F non collinear calculations
   LSORBIT =      F    spin-orbit coupling
   INIWAV =      1    electr: 0-lowe 1-rand  2-diag
   LASPH  =      F    aspherical Exc in radial PAW
   METAGGA=      F    non-selfconsistent MetaGGA calc.

 Electronic Relaxation 1
   ENCUT  =  500.0 eV  36.75 Ry    6.06 a.u.  18.93 18.87 41.79*2*pi/ulx,y,z
   ENINI  =  500.0     initial cutoff
   ENAUG  =  544.6 eV  augmentation charge cutoff
   NELM   =    300;   NELMIN=  4; NELMDL= -5     # of ELM steps 
   EDIFF  = 0.1E-05   stopping-criterion for ELM
   LREAL  =      T    real-space projection
   NLSPLINE    = F    spline interpolate recip. space projectors
   LCOMPAT=      F    compatible to vasp.4.4
   GGA_COMPAT  = T    GGA compatible to vasp.4.4-vasp.4.6
   LMAXPAW     = -100 max onsite density
   LMAXMIX     =    2 max onsite mixed and CHGCAR
   VOSKOWN=      0    Vosko Wilk Nusair interpolation
   ROPT   =   -0.00025  -0.00025  -0.00025  -0.00025
   ROPT   =   -0.00025
 Ionic relaxation
   EDIFFG = -.5E-01   stopping-criterion for IOM
   NSW    =    300    number of steps for IOM
   NBLOCK =      1;   KBLOCK =    300    inner block; outer block 
   IBRION =      2    ionic relax: 0-MD 1-quasi-New 2-CG
   NFREE  =      1    steps in history (QN), initial steepest desc. (CG)
   ISIF   =      2    stress and relaxation
   IWAVPR =     11    prediction:  0-non 1-charg 2-wave 3-comb
   ISYM   =      2    0-nonsym 1-usesym 2-fastsym
   LCORR  =      T    Harris-Foulkes like correction to forces

   POTIM  = 0.5000    time-step for ionic-motion
   TEIN   =    0.0    initial temperature
   TEBEG  =    0.0;   TEEND  =   0.0 temperature during run
   SMASS  =  -3.00    Nose mass-parameter (am)
   estimated Nose-frequenzy (Omega)   =  0.10E-29 period in steps =****** mass=  -0.246E-26a.u.
   SCALEE = 1.0000    scale energy and forces
   NPACO  =    256;   APACO  = 16.0  distance and # of slots for P.C.
   PSTRESS=    0.0 pullay stress

  Mass of Ions in am
   POMASS = 195.08106.42 58.69 58.93 55.85
  Ionic Valenz
   ZVAL   =  10.00 10.00 10.00  9.00  8.00
  Atomic Wigner-Seitz radii
   RWIGS  =  -1.00 -1.00 -1.00 -1.00 -1.00
  virtual crystal weights 
   VCA    =   1.00  1.00  1.00  1.00  1.00
   NELECT =     752.0000    total number of electrons
   NUPDOWN=      -1.0000    fix difference up-down

 DOS related values:
   EMIN   =  10.00;   EMAX   =-10.00  energy-range for DOS
   EFERMI =   0.00
   ISMEAR =     1;   SIGMA  =   0.10  broadening in eV -4-tet -1-fermi 0-gaus

 Electronic relaxation 2 (details)
   IALGO  =     68    algorithm
   LDIAG  =      T    sub-space diagonalisation (order eigenvalues)
   LSUBROT=      F    optimize rotation matrix (better conditioning)
   TURBO    =      0    0=normal 1=particle mesh
   IRESTART =      0    0=no restart 2=restart with 2 vectors
   NREBOOT  =      0    no. of reboots
   NMIN     =      0    reboot dimension
   EREF     =   0.00    reference energy to select bands
   IMIX   =      4    mixing-type and parameters
     AMIX     =   0.40;   BMIX     =  1.00
     AMIX_MAG =   1.60;   BMIX_MAG =  1.00
     AMIN     =   0.10
     WC   =   100.;   INIMIX=   1;  MIXPRE=   1;  MAXMIX= -45

 Intra band minimization:
   WEIMIN = 0.0010     energy-eigenvalue tresh-hold
   EBREAK =  0.48E-09  absolut break condition
   DEPER  =   0.30     relativ break condition  

   TIME   =   0.40     timestep for ELM

  volume/ion in A,a.u.               =      26.56       179.27
  Fermi-wavevector in a.u.,A,eV,Ry     =   1.157931  2.188172 18.242750  1.340804
  Thomas-Fermi vector in A             =   2.294538
 
 Write flags
   LWAVE        =      F    write WAVECAR
   LDOWNSAMPLE  =      F    k-point downsampling of WAVECAR
   LCHARG       =      F    write CHGCAR
   LVTOT        =      F    write LOCPOT, total local potential
   LVHAR        =      F    write LOCPOT, Hartree potential only
   LELF         =      F    write electronic localiz. function (ELF)
   LORBIT       =     11    0 simple, 1 ext, 2 COOP (PROOUT), +10 PAW based schemes


 Dipole corrections
   LMONO  =      F    monopole corrections only (constant potential shift)
   LDIPOL =      F    correct potential (dipole corrections)
   IDIPOL =      0    1-x, 2-y, 3-z, 4-all directions 
   EPSILON=  1.0000000 bulk dielectric constant

 Exchange correlation treatment:
   GGA     =    PE    GGA type
   LEXCH   =     8    internal setting for exchange type
   VOSKOWN=      0    Vosko Wilk Nusair interpolation
   LHFCALC =     F    Hartree Fock is set to
   LHFONE  =     F    Hartree Fock one center treatment
   AEXX    =    0.0000 exact exchange contribution

 Linear response parameters
   LEPSILON=     F    determine dielectric tensor
   LRPA    =     F    only Hartree local field effects (RPA)
   LNABLA  =     F    use nabla operator in PAW spheres
   LVEL    =     F    velocity operator in full k-point grid
   LINTERFAST=   F  fast interpolation
   KINTER  =     0    interpolate to denser k-point grid
   CSHIFT  =0.1000    complex shift for real part using Kramers Kronig
   OMEGAMAX=  -1.0    maximum frequency
   DEG_THRESHOLD= 0.2000000E-02 threshold for treating states as degnerate
   RTIME   =   -0.100 relaxation time in fs
  (WPLASMAI=    0.000 imaginary part of plasma frequency in eV, 0.658/RTIME)
   DFIELD  = 0.0000000 0.0000000 0.0000000 field for delta impulse in time
 
 Orbital magnetization related:
   ORBITALMAG=     F  switch on orbital magnetization
   LCHIMAG   =     F  perturbation theory with respect to B field
   DQ        =  0.001000  dq finite difference perturbation B field
   LLRAUG    =     F  two centre corrections for induced B field



--------------------------------------------------------------------------------------------------------


 conjugate gradient relaxation of ions
   using selective dynamics as specified on POSCAR
 charge density and potential will be updated during run
 spin polarized calculation
 RMM-DIIS sequential band-by-band and
  variant of blocked Davidson during initial phase
 perform sub-space diagonalisation
    before iterative eigenvector-optimisation
 modified Broyden-mixing scheme, WC =      100.0
 initial mixing is a Kerker type mixing with AMIX =  0.4000 and BMIX =      1.0000
 Hartree-type preconditioning will be used
 using additional bands          148
 real space projection scheme for non local part
 use partial core corrections
 calculate Harris-corrections to forces 
   (improved forces if not selfconsistent)
 use gradient corrections 
 use of overlap-Matrix (Vanderbilt PP)
 Methfessel and Paxton  Order N= 1 SIGMA  =   0.10


--------------------------------------------------------------------------------------------------------


  energy-cutoff  :      500.00
  volume of cell :     2125.17
      direct lattice vectors                 reciprocal lattice vectors
     8.978838000 -5.208212775 -0.021396186     0.111630969  0.000444864 -0.000026366
    -0.041247930 10.351220008  0.013020283     0.056167080  0.096830806 -0.000015557
     0.005410890  0.000543430 22.918565130     0.000072307 -0.000054595  0.043632733

  length of vectors
    10.380051538 10.351310380 22.918565775     0.111631858  0.111941708  0.043632827


 
 k-points in units of 2pi/SCALE and weight: Automatic mesh                          
   0.00000000  0.00000000  0.00000000       1.000
 
 k-points in reciprocal lattice and weights: Automatic mesh                          
   0.00000000  0.00000000  0.00000000       1.000
 
 position of ions in fractional coordinates (direct lattice) 
   0.85230912  0.86276174  0.37436393
   0.43444014  0.54255548  0.46857838
   0.34367026  0.62154122  0.37193013
   0.34272632  0.85850612  0.37612884
   0.02038880  0.69884694  0.28395679
   0.76935776  0.20460636  0.27761297
   0.85049271  0.87358819  0.09433596
   0.26331159  0.94506423  0.28514598
   0.36165749  0.87069314  0.09383582
   0.51346980  0.44790370  0.27772495
   0.84456398  0.61742095  0.09549559
   0.10476018  0.61479015  0.09701473
   0.43665003  0.54268207  0.18418521
   0.93574346  0.54272427  0.46601523
   0.68046914  0.27312762  0.47054707
   0.01945606  0.20943621  0.28045155
   0.84514800  0.10959764  0.37883594
   0.35207211  0.36526496  0.09464985
   0.85891489  0.62762020  0.37101191
   0.68355243  0.53084424  0.46707616
   0.50894472  0.19442528  0.27964004
   0.18004111  0.27914269  0.18692365
   0.76433642  0.94744455  0.27833624
   0.60949844  0.62185804  0.37251216
   0.84554472  0.35663978  0.09700540
   0.26504998  0.19375423  0.27990559
   0.67763622  0.03372734  0.47178211
   0.35481172  0.11771671  0.09403587
   0.43419202  0.27606010  0.46969793
   0.18486628  0.78602145  0.19242816
   0.35196921  0.36357366  0.37347072
   0.60088611  0.36634248  0.09791610
   0.18128706  0.53786132  0.46281651
   0.60574580  0.11439999  0.09319978
   0.43911630  0.78833882  0.18491982
   0.26113685  0.45564581  0.28225523
   0.59283718  0.86136775  0.37712996
   0.10076635  0.10728211  0.37475508
   0.43693261  0.27892050  0.18697223
   0.17727859  0.27819712  0.47017590
   0.92884751  0.03034347  0.18499013
   0.09518033  0.35816871  0.09638963
   0.85582648  0.37259376  0.37400051
   0.25633333  0.69142863  0.28320259
   0.18419532  0.03216769  0.18642769
   0.35223762  0.61791507  0.09387472
   0.77224206  0.69905693  0.27752292
   0.09976373  0.85598268  0.37538379
   0.68731158  0.78484999  0.18546354
   0.91889883  0.27539543  0.46975091
   0.17711899  0.52798335  0.19040337
   0.43704127  0.79727924  0.46485431
   0.60045698  0.35934902  0.37618388
   0.92666372  0.28009985  0.18843015
   0.92492241  0.77770918  0.18876204
   0.18698785  0.02441011  0.47003871
   0.59804946  0.62666308  0.09211382
   0.02218495  0.45638511  0.27969721
   0.50702756  0.94368819  0.27891869
   0.43611864  0.03129861  0.47252247
   0.68996184  0.79702148  0.47087614
   0.59972768  0.86247965  0.09505124
   0.84632066  0.11567147  0.09840293
   0.02104348  0.94076911  0.27756676
   0.58831638  0.10808803  0.37872428
   0.34599485  0.10941166  0.37361888
   0.50855221  0.69697087  0.28096534
   0.10833051  0.37800229  0.37113501
   0.43628600  0.03637461  0.18604811
   0.10019526  0.11129131  0.09491664
   0.93791377  0.52959772  0.18907929
   0.10573358  0.62869425  0.37072034
   0.68546331  0.54070506  0.18600785
   0.77423552  0.45653810  0.27752136
   0.68794483  0.03087748  0.18255496
   0.93560004  0.78701193  0.46495370
   0.93097305  0.03340698  0.47235221
   0.10266150  0.87030458  0.09576701
   0.19413451  0.78783207  0.46420122
   0.67547439  0.27605733  0.18511607
 
 position of ions in cartesian coordinates  (Angst):
   7.61918403  4.49183273  8.57288135
   3.88092375  3.35370909 10.73691295
   3.06213481  4.64400415  8.52484441
   3.04390767  7.10179855  8.62417822
   0.15577822  7.12788347  6.51654512
   6.90100126 -1.88890261  6.34869372
   7.60091301  4.61320780  2.15522185
   2.32679306  8.41133998  6.54180792
   3.21185744  7.12919809  2.15418089
   4.59338981  1.96224067  6.35990279
   7.55825256  1.99244311  2.17859050
   0.91579084  5.81826747  2.22920164
   3.89922202  3.34335527  4.21898389
   8.38202422  0.74456049 10.66744539
   6.10110226 -0.71656827 10.77326042
   0.16757148  2.06674142  6.42985771
   7.58597619 -3.26703550  8.66572016
   3.14664418  1.94732295  2.16646155
   7.68817716  2.02342483  8.49285486
   6.11813759  1.93505284 10.69700170
   4.56322562 -0.63800153  6.40059055
   1.60605735  1.95187660  4.28380418
   6.82527878  5.82653158  6.37504939
   5.44895303  3.26279427  8.53250003
   7.57782326 -0.71206723  2.20977666
   2.37336338  0.62530813  6.41188607
   6.08554745 -3.17989809 10.79850929
   3.18145023 -0.62937233  2.14910831
   3.88969439  0.59644969 10.75910702
   1.62850387  7.17356260  4.41645618
   3.14729869  1.93050336  8.55661614
   5.38067799  0.66260209  2.23600972
   1.60806571  4.62359074 10.61021469
   5.43467894 -1.97062295  2.12453410
   3.91123737  5.87335792  4.23896597
   2.32743826  3.35658713  6.46923021
   5.28950000  5.82878989  8.64180837
   0.90236732  0.58589175  8.58808965
   3.91265393  0.61163109  4.27941816
   1.58282478  1.95663048 10.77558607
   8.33972065 -4.52344304  4.22022961
   0.84035658  3.21181609  2.21173899
   7.67098226 -0.60032318  8.55809484
   2.27458785  5.82224522  6.49411508
   1.65354178 -0.62625220  4.26913283
   3.13770476  4.56169735  2.15198285
   6.90650332  3.21424192  6.35300601
   0.86248602  8.34107832  8.61226836
   6.13988938  4.54459076  4.24607135
   8.24182598 -1.93488660 10.74994164
   1.56957472  4.54290196  4.36685692
   3.89375188  5.97686157 10.65482360
   5.37861903  0.59259751  8.61342619
   8.30982947 -1.92678426  4.30236854
   8.27367093  3.23314875  4.31649120
   1.68047008 -0.72094263 10.76892975
   5.34443905  3.37200865  2.10647983
   0.18188357  4.60875069  6.41572625
   4.51510237  7.12776819  6.39385475
   3.91710439 -1.94716306 10.82061316
   6.16472796  4.65693252 10.78742037
   5.34979651  5.80425887  2.17683593
   7.59473733 -3.21042373  2.23865204
   0.15164313  9.62865990  6.37323061
   5.27998827 -1.94502803  8.66863676
   3.10414035 -0.66926762  8.55683028
   4.53897958  4.56600341  6.43751618
   0.95909846  3.34877825  8.50848566
   3.91684767 -1.89564765  4.25509448
   0.89556002  0.63021418  2.17465844
   8.40055409  0.59723075  4.32025376
   0.92543829  5.95727095  8.50230183
   6.13336750  2.02701938  4.25540686
   6.93440572  0.69349380  6.34977004
   6.17665936 -3.26324427  4.16958040
   8.37065443  3.27398218 10.64630039
   8.36023404 -4.50264599 10.80615057
   0.88640085  8.47408334  2.20397752
   1.71311764  7.14418154 10.64492984
   6.05458993 -0.66038355  4.23173641
 


--------------------------------------------------------------------------------------------------------


 k-point  1 :   0.0000 0.0000 0.0000  plane waves:   53867

 maximum and minimum number of plane-waves per node :      6738     6731

 maximum number of plane-waves:     53867
 maximum index in each direction: 
   IXMAX=   18   IYMAX=   18   IZMAX=   41
   IXMIN=  -18   IYMIN=  -18   IZMIN=  -41


 real space projection operators:
  total allocation   :      75217.92 KBytes
  max/ min on nodes  :       9417.38       9385.59


 parallel 3D FFT for wavefunctions:
    minimum data exchange during FFTs selected (reduces bandwidth)
 parallel 3D FFT for charge:
    minimum data exchange during FFTs selected (reduces bandwidth)


 total amount of memory used by VASP MPI-rank0   133005. kBytes
=======================================================================

   base      :      30000. kBytes
   nonlr-proj:      21735. kBytes
   fftplans  :      13111. kBytes
   grid      :      38873. kBytes
   one-center:        311. kBytes
   wavefun   :      28975. kBytes
 
     INWAV:  cpu time    0.0000: real time    0.0000
 Broyden mixing: mesh for mixing (old mesh)
   NGX = 37   NGY = 37   NGZ = 83
  (NGX  =160   NGY  =160   NGZ  =336)
  gives a total of 113627 points

 initial charge density was supplied:
 charge density of overlapping atoms calculated
 number of electron     752.0000000 magnetization     144.5000000
 keeping initial charge density in first step


--------------------------------------------------------------------------------------------------------


 Maximum index for non-local projection operator          921
 Maximum index for augmentation-charges         1006 (set IRDMAX)


--------------------------------------------------------------------------------------------------------


 First call to EWALD:  gamma=   0.138
 Maximum number of real-space cells 4x 4x 2
 Maximum number of reciprocal cells 2x 2x 5

    FEWALD:  cpu time    0.0028: real time    0.0029


--------------------------------------- Iteration      1(   1)  ---------------------------------------


    POTLOK:  cpu time    0.5199: real time    0.5248
    SETDIJ:  cpu time    0.0307: real time    0.0309
     EDDAV:  cpu time   22.5498: real time   22.7218
       DOS:  cpu time    0.0010: real time    0.0011
    --------------------------------------------
      LOOP:  cpu time   23.1014: real time   23.2786

 eigenvalue-minimisations  :  2096
 total energy-change (2. order) : 0.6729934E+04  (-0.3139283E+05)
 number of electron     752.0000000 magnetization     144.5000000
 augmentation part      752.0000000 magnetization     144.5000000

 Free energy of the ion-electron system (eV)
  ---------------------------------------------------
  alpha Z        PSCENC =      1910.03862965
  Ewald energy   TEWEN  =    246156.07504999
  -Hartree energ DENC   =   -312812.53379418
  -exchange      EXHF   =         0.00000000
  -V(xc)+E(xc)   XCENC  =       450.14095547
  PAW double counting   =     60128.87190506   -60814.33120433
  entropy T*S    EENTRO =        -0.00420818
  eigenvalues    EBANDS =      6940.38751476
  atomic energy  EATOM  =     64771.28894216
  Solvation  Ediel_sol  =         0.00000000
  ---------------------------------------------------
  free energy    TOTEN  =      6729.93379040 eV

  energy without entropy =     6729.93799858  energy(sigma->0) =     6729.93519313


--------------------------------------------------------------------------------------------------------




--------------------------------------- Iteration      1(   2)  ---------------------------------------


     EDDAV:  cpu time   22.4519: real time   22.6223
       DOS:  cpu time    0.0011: real time    0.0011
    --------------------------------------------
      LOOP:  cpu time   22.4530: real time   22.6235

 eigenvalue-minimisations  :  2096
 total energy-change (2. order) :-0.6352767E+04  (-0.5805793E+04)
 number of electron     752.0000000 magnetization     144.5000000
 augmentation part      752.0000000 magnetization     144.5000000

 Free energy of the ion-electron system (eV)
  ---------------------------------------------------
  alpha Z        PSCENC =      1910.03862965
  Ewald energy   TEWEN  =    246156.07504999
  -Hartree energ DENC   =   -312812.53379418
  -exchange      EXHF   =         0.00000000
  -V(xc)+E(xc)   XCENC  =       450.14095547
  PAW double counting   =     60128.87190506   -60814.33120433
  entropy T*S    EENTRO =         0.00962032
  eigenvalues    EBANDS =       587.60647997
  atomic energy  EATOM  =     64771.28894216
  Solvation  Ediel_sol  =         0.00000000
  ---------------------------------------------------
  free energy    TOTEN  =       377.16658411 eV

  energy without entropy =      377.15696379  energy(sigma->0) =      377.16337733


--------------------------------------------------------------------------------------------------------




--------------------------------------- Iteration      1(   3)  ---------------------------------------


     EDDAV:  cpu time   23.9096: real time   24.0900
       DOS:  cpu time    0.0012: real time    0.0013
    --------------------------------------------
      LOOP:  cpu time   23.9108: real time   24.0912

 eigenvalue-minimisations  :  2264
 total energy-change (2. order) :-0.8555033E+03  (-0.6997830E+03)
 number of electron     752.0000000 magnetization     144.5000000
 augmentation part      752.0000000 magnetization     144.5000000

 Free energy of the ion-electron system (eV)
  ---------------------------------------------------
  alpha Z        PSCENC =      1910.03862965
  Ewald energy   TEWEN  =    246156.07504999
  -Hartree energ DENC   =   -312812.53379418
  -exchange      EXHF   =         0.00000000
  -V(xc)+E(xc)   XCENC  =       450.14095547
  PAW double counting   =     60128.87190506   -60814.33120433
  entropy T*S    EENTRO =         0.02563417
  eigenvalues    EBANDS =      -267.91283157
  atomic energy  EATOM  =     64771.28894216
  Solvation  Ediel_sol  =         0.00000000
  ---------------------------------------------------
  free energy    TOTEN  =      -478.33671358 eV

  energy without entropy =     -478.36234775  energy(sigma->0) =     -478.34525831


--------------------------------------------------------------------------------------------------------




--------------------------------------- Iteration      1(   4)  ---------------------------------------


     EDDAV:  cpu time   24.4837: real time   24.6702
       DOS:  cpu time    0.0011: real time    0.0011
    --------------------------------------------
      LOOP:  cpu time   24.4848: real time   24.6713

 eigenvalue-minimisations  :  2328
 total energy-change (2. order) :-0.6941948E+02  (-0.6583211E+02)
 number of electron     752.0000000 magnetization     144.5000000
 augmentation part      752.0000000 magnetization     144.5000000

 Free energy of the ion-electron system (eV)
  ---------------------------------------------------
  alpha Z        PSCENC =      1910.03862965
  Ewald energy   TEWEN  =    246156.07504999
  -Hartree energ DENC   =   -312812.53379418
  -exchange      EXHF   =         0.00000000
  -V(xc)+E(xc)   XCENC  =       450.14095547
  PAW double counting   =     60128.87190506   -60814.33120433
  entropy T*S    EENTRO =         0.01189731
  eigenvalues    EBANDS =      -337.31857134
  atomic energy  EATOM  =     64771.28894216
  Solvation  Ediel_sol  =         0.00000000
  ---------------------------------------------------
  free energy    TOTEN  =      -547.75619020 eV

  energy without entropy =     -547.76808752  energy(sigma->0) =     -547.76015597


--------------------------------------------------------------------------------------------------------




--------------------------------------- Iteration      1(   5)  ---------------------------------------


     EDDAV:  cpu time   25.0064: real time   25.1978
       DOS:  cpu time    0.0013: real time    0.0013
    CHARGE:  cpu time    0.5920: real time    0.5953
    MIXING:  cpu time    0.0173: real time    0.0178
    --------------------------------------------
      LOOP:  cpu time   25.6170: real time   25.8122

 eigenvalue-minimisations  :  2392
 total energy-change (2. order) :-0.1716621E+01  (-0.1710036E+01)
 number of electron     752.0000059 magnetization     139.7136134
 augmentation part      336.4902319 magnetization     112.0547199

 Broyden mixing:
  rms(total) = 0.10172E+02    rms(broyden)= 0.10172E+02
  rms(prec ) = 0.10480E+02
  weight for this iteration     100.00

 Free energy of the ion-electron system (eV)
  ---------------------------------------------------
  alpha Z        PSCENC =      1910.03862965
  Ewald energy   TEWEN  =    246156.07504999
  -Hartree energ DENC   =   -312812.53379418
  -exchange      EXHF   =         0.00000000
  -V(xc)+E(xc)   XCENC  =       450.14095547
  PAW double counting   =     60128.87190506   -60814.33120433
  entropy T*S    EENTRO =         0.01206851
  eigenvalues    EBANDS =      -339.03536330
  atomic energy  EATOM  =     64771.28894216
  Solvation  Ediel_sol  =         0.00000000
  ---------------------------------------------------
  free energy    TOTEN  =      -549.47281097 eV

  energy without entropy =     -549.48487948  energy(sigma->0) =     -549.47683381


--------------------------------------------------------------------------------------------------------




--------------------------------------- Iteration      1(   6)  ---------------------------------------


    POTLOK:  cpu time    0.5161: real time    0.5199
    SETDIJ:  cpu time    0.0311: real time    0.0313
    EDDIAG:  cpu time    3.4216: real time    3.4481
  RMM-DIIS:  cpu time   11.1747: real time   11.2520
    ORTHCH:  cpu time    0.9571: real time    0.9622
       DOS:  cpu time    0.0014: real time    0.0014
    CHARGE:  cpu time    0.5917: real time    0.5949
    MIXING:  cpu time    0.0157: real time    0.0161
    --------------------------------------------
      LOOP:  cpu time   16.7093: real time   16.8259

 eigenvalue-minimisations  :  2100
 total energy-change (2. order) :-0.1542772E+03  (-0.8973241E+02)
 number of electron     752.0000077 magnetization     137.0524870
 augmentation part      392.3610958 magnetization     121.6168892

 Broyden mixing:
  rms(total) = 0.18055E+02    rms(broyden)= 0.18055E+02
  rms(prec ) = 0.19474E+02
  weight for this iteration     100.00

 eigenvalues of (default mixing * dielectric matrix)
  average eigenvalue GAMMA=   0.2408
  0.2408

 Free energy of the ion-electron system (eV)
  ---------------------------------------------------
  alpha Z        PSCENC =      1910.03862965
  Ewald energy   TEWEN  =    246156.07504999
  -Hartree energ DENC   =   -311948.35414293
  -exchange      EXHF   =         0.00000000
  -V(xc)+E(xc)   XCENC  =       405.00065719
  PAW double counting   =     65843.87238040   -66351.69214967
  entropy T*S    EENTRO =         0.00185582
  eigenvalues    EBANDS =     -1489.98127234
  atomic energy  EATOM  =     64771.28894216
  Solvation  Ediel_sol  =         0.00000000
  ---------------------------------------------------
  free energy    TOTEN  =      -703.75004973 eV

  energy without entropy =     -703.75190555  energy(sigma->0) =     -703.75066834


--------------------------------------------------------------------------------------------------------




--------------------------------------- Iteration      1(   7)  ---------------------------------------


    POTLOK:  cpu time    0.5163: real time    0.5203
    SETDIJ:  cpu time    0.0305: real time    0.0306
    EDDIAG:  cpu time    3.4310: real time    3.4570
  RMM-DIIS:  cpu time   11.2148: real time   11.2919
    ORTHCH:  cpu time    0.9602: real time    0.9654
       DOS:  cpu time    0.0013: real time    0.0013
    CHARGE:  cpu time    0.5842: real time    0.5874
    MIXING:  cpu time    0.0185: real time    0.0187
    --------------------------------------------
      LOOP:  cpu time   16.7567: real time   16.8726

 eigenvalue-minimisations  :  2102
 total energy-change (2. order) : 0.1921285E+03  (-0.2451213E+02)
 number of electron     752.0000073 magnetization     133.9811284
 augmentation part      370.8570857 magnetization     106.1440400

 Broyden mixing:
  rms(total) = 0.91535E+01    rms(broyden)= 0.91532E+01
  rms(prec ) = 0.10526E+02
  weight for this iteration     100.00

 eigenvalues of (default mixing * dielectric matrix)
  average eigenvalue GAMMA=   0.3485
  0.4729  0.2242

 Free energy of the ion-electron system (eV)
  ---------------------------------------------------
  alpha Z        PSCENC =      1910.03862965
  Ewald energy   TEWEN  =    246156.07504999
  -Hartree energ DENC   =   -311869.84060766
  -exchange      EXHF   =         0.00000000
  -V(xc)+E(xc)   XCENC  =       409.61201285
  PAW double counting   =     67134.15483297   -67810.69707286
  entropy T*S    EENTRO =        -0.01519013
  eigenvalues    EBANDS =     -1212.23811825
  atomic energy  EATOM  =     64771.28894216
  Solvation  Ediel_sol  =         0.00000000
  ---------------------------------------------------
  free energy    TOTEN  =      -511.62152129 eV

  energy without entropy =     -511.60633116  energy(sigma->0) =     -511.61645791


--------------------------------------------------------------------------------------------------------




--------------------------------------- Iteration      1(   8)  ---------------------------------------


    POTLOK:  cpu time    0.5145: real time    0.5183
    SETDIJ:  cpu time    0.0293: real time    0.0295
    EDDIAG:  cpu time    3.4353: real time    3.4613
  RMM-DIIS:  cpu time   11.1737: real time   11.2507
    ORTHCH:  cpu time    0.9617: real time    0.9672
       DOS:  cpu time    0.0011: real time    0.0012
    CHARGE:  cpu time    0.5669: real time    0.5700
    MIXING:  cpu time    0.0168: real time    0.0170
    --------------------------------------------
      LOOP:  cpu time   16.6994: real time   16.8151

 eigenvalue-minimisations  :  2098
 total energy-change (2. order) :-0.2133087E+03  (-0.2052522E+02)
 number of electron     752.0000066 magnetization     131.0094113
 augmentation part      356.6169847 magnetization     106.8145013

 Broyden mixing:
  rms(total) = 0.19319E+02    rms(broyden)= 0.19318E+02
  rms(prec ) = 0.24672E+02
  weight for this iteration     100.00

 eigenvalues of (default mixing * dielectric matrix)
  average eigenvalue GAMMA=   0.3322
  0.6378  0.2592  0.0996

 Free energy of the ion-electron system (eV)
  ---------------------------------------------------
  alpha Z        PSCENC =      1910.03862965
  Ewald energy   TEWEN  =    246156.07504999
  -Hartree energ DENC   =   -312254.14792840
  -exchange      EXHF   =         0.00000000
  -V(xc)+E(xc)   XCENC  =       418.56773750
  PAW double counting   =     68921.39012882   -69679.38846727
  entropy T*S    EENTRO =         0.01129115
  eigenvalues    EBANDS =      -968.76560809
  atomic energy  EATOM  =     64771.28894216
  Solvation  Ediel_sol  =         0.00000000
  ---------------------------------------------------
  free energy    TOTEN  =      -724.93022449 eV

  energy without entropy =     -724.94151564  energy(sigma->0) =     -724.93398821


--------------------------------------------------------------------------------------------------------




--------------------------------------- Iteration      1(   9)  ---------------------------------------


    POTLOK:  cpu time    0.5111: real time    0.5150
    SETDIJ:  cpu time    0.0312: real time    0.0314
    EDDIAG:  cpu time    3.4055: real time    3.4311
  RMM-DIIS:  cpu time   11.1965: real time   11.2730
    ORTHCH:  cpu time    0.9567: real time    0.9618
       DOS:  cpu time    0.0012: real time    0.0013
    CHARGE:  cpu time    0.5866: real time    0.5898
    MIXING:  cpu time    0.0168: real time    0.0169
    --------------------------------------------
      LOOP:  cpu time   16.7057: real time   16.8203

 eigenvalue-minimisations  :  2098
 total energy-change (2. order) : 0.8816975E+02  (-0.9870951E+01)
 number of electron     752.0000051 magnetization     128.5446615
 augmentation part      361.4173888 magnetization     103.4669280

 Broyden mixing:
  rms(total) = 0.17143E+02    rms(broyden)= 0.17143E+02
  rms(prec ) = 0.20280E+02
  weight for this iteration     100.00

 eigenvalues of (default mixing * dielectric matrix)
  average eigenvalue GAMMA=   0.3169
  0.7456  0.3096  0.1062  0.1062

 Free energy of the ion-electron system (eV)
  ---------------------------------------------------
  alpha Z        PSCENC =      1910.03862965
  Ewald energy   TEWEN  =    246156.07504999
  -Hartree energ DENC   =   -312413.31081574
  -exchange      EXHF   =         0.00000000
  -V(xc)+E(xc)   XCENC  =       420.54356516
  PAW double counting   =     70256.41004507   -71029.53367120
  entropy T*S    EENTRO =         0.00062599
  eigenvalues    EBANDS =      -708.27284661
  atomic energy  EATOM  =     64771.28894216
  Solvation  Ediel_sol  =         0.00000000
  ---------------------------------------------------
  free energy    TOTEN  =      -636.76047552 eV

  energy without entropy =     -636.76110152  energy(sigma->0) =     -636.76068419


--------------------------------------------------------------------------------------------------------




--------------------------------------- Iteration      1(  10)  ---------------------------------------


    POTLOK:  cpu time    0.5146: real time    0.5188
    SETDIJ:  cpu time    0.0316: real time    0.0318
    EDDIAG:  cpu time    3.4131: real time    3.4386
  RMM-DIIS:  cpu time   11.1652: real time   11.2426
    ORTHCH:  cpu time    0.9571: real time    0.9622
       DOS:  cpu time    0.0013: real time    0.0013
    CHARGE:  cpu time    0.6053: real time    0.6086
    MIXING:  cpu time    0.0173: real time    0.0174
    --------------------------------------------
      LOOP:  cpu time   16.7055: real time   16.8214

 eigenvalue-minimisations  :  2099
 total energy-change (2. order) : 0.1003572E+03  (-0.1150553E+02)
 number of electron     752.0000062 magnetization     126.8776080
 augmentation part      369.1407209 magnetization      96.5707306

 Broyden mixing:
  rms(total) = 0.12009E+02    rms(broyden)= 0.12009E+02
  rms(prec ) = 0.15176E+02
  weight for this iteration     100.00

 eigenvalues of (default mixing * dielectric matrix)
  average eigenvalue GAMMA=   0.3153
  0.7711  0.4322  0.1536  0.1536  0.0659

 Free energy of the ion-electron system (eV)
  ---------------------------------------------------
  alpha Z        PSCENC =      1910.03862965
  Ewald energy   TEWEN  =    246156.07504999
  -Hartree energ DENC   =   -312301.57781398
  -exchange      EXHF   =         0.00000000
  -V(xc)+E(xc)   XCENC  =       422.55392628
  PAW double counting   =     71142.32497054   -71913.56504004
  entropy T*S    EENTRO =         0.03281238
  eigenvalues    EBANDS =      -723.57475554
  atomic energy  EATOM  =     64771.28894216
  Solvation  Ediel_sol  =         0.00000000
  ---------------------------------------------------
  free energy    TOTEN  =      -536.40327855 eV

  energy without entropy =     -536.43609093  energy(sigma->0) =     -536.41421601


--------------------------------------------------------------------------------------------------------




--------------------------------------- Iteration      1(  11)  ---------------------------------------


    POTLOK:  cpu time    0.5134: real time    0.5173
    SETDIJ:  cpu time    0.0330: real time    0.0332
    EDDIAG:  cpu time    3.4317: real time    3.4576
  RMM-DIIS:  cpu time   11.1812: real time   11.2604
    ORTHCH:  cpu time    0.9570: real time    0.9626
       DOS:  cpu time    0.0011: real time    0.0011
    CHARGE:  cpu time    0.5772: real time    0.5803
    MIXING:  cpu time    0.0194: real time    0.0195
    --------------------------------------------
      LOOP:  cpu time   16.7140: real time   16.8321

 eigenvalue-minimisations  :  2105
 total energy-change (2. order) : 0.5609950E+02  (-0.8270356E+01)
 number of electron     752.0000070 magnetization     124.4113971
 augmentation part      371.4781547 magnetization      95.9405116

 Broyden mixing:
  rms(total) = 0.98355E+01    rms(broyden)= 0.98351E+01
  rms(prec ) = 0.10857E+02
  weight for this iteration     100.00

 eigenvalues of (default mixing * dielectric matrix)
  average eigenvalue GAMMA=   0.3543
  1.0766  0.5096  0.2100  0.1327  0.1327  0.0644

 Free energy of the ion-electron system (eV)
  ---------------------------------------------------
  alpha Z        PSCENC =      1910.03862965
  Ewald energy   TEWEN  =    246156.07504999
  -Hartree energ DENC   =   -312175.47006552
  -exchange      EXHF   =         0.00000000
  -V(xc)+E(xc)   XCENC  =       427.12230722
  PAW double counting   =     71686.70362514   -72468.89218323
  entropy T*S    EENTRO =         0.00054087
  eigenvalues    EBANDS =      -787.17062279
  atomic energy  EATOM  =     64771.28894216
  Solvation  Ediel_sol  =         0.00000000
  ---------------------------------------------------
  free energy    TOTEN  =      -480.30377651 eV

  energy without entropy =     -480.30431738  energy(sigma->0) =     -480.30395680


--------------------------------------------------------------------------------------------------------




--------------------------------------- Iteration      1(  12)  ---------------------------------------


    POTLOK:  cpu time    0.5131: real time    0.5170
    SETDIJ:  cpu time    0.0325: real time    0.0328
[...]
   -.316E+02 -.542E+02 0.377E+02   0.316E+02 0.537E+02 -.383E+02   -.499E-02 0.631E+00 0.620E+00   -.215E-04 0.736E-04 -.178E-04
   -.976E+01 -.118E+02 -.278E+04   0.954E+01 0.117E+02 0.278E+04   0.303E+00 0.971E-01 0.159E+01   -.124E-03 0.515E-03 -.360E-03
   -.402E+02 0.202E+02 -.274E+04   0.403E+02 -.201E+02 0.274E+04   -.128E+00 -.762E-01 0.128E+01   0.190E-03 -.855E-04 -.141E-03
   -.207E+02 -.195E+02 0.281E+04   0.211E+02 0.196E+02 -.281E+04   -.107E+00 -.181E+00 -.141E+01   -.236E-03 -.774E-05 0.154E-03
   -.281E+02 0.272E+01 0.279E+04   0.280E+02 -.307E+01 -.278E+04   0.135E+00 0.201E+00 -.165E+01   -.482E-03 -.670E-03 -.971E-05
   -.207E+02 0.221E+01 0.254E+02   0.204E+02 -.237E+01 -.261E+02   0.326E+00 0.204E+00 0.692E+00   0.330E-03 0.462E-04 0.192E-03
   0.269E+01 0.159E+02 -.141E+04   -.287E+01 -.158E+02 0.141E+04   0.266E+00 -.210E+00 0.377E-01   -.434E-03 0.485E-04 -.260E-03
   -.374E+02 -.121E+02 -.130E+04   0.373E+02 0.121E+02 0.130E+04   0.105E+00 0.739E-01 -.506E+00   -.308E-03 -.128E-03 0.371E-04
   -.412E+02 0.317E+02 -.449E+01   0.411E+02 -.312E+02 0.420E+01   0.196E+00 -.565E+00 0.254E+00   0.137E-03 0.380E-03 -.245E-03
   -.146E+02 -.788E+00 -.122E+04   0.144E+02 0.124E+01 0.122E+04   0.265E+00 -.483E+00 0.525E-01   0.210E-03 -.548E-03 0.178E-03
   -.125E+02 0.467E+01 0.122E+04   0.134E+02 -.497E+01 -.122E+04   -.742E+00 -.110E+00 -.236E+00   -.216E-03 -.337E-03 0.458E-04
   0.164E+01 0.125E+02 0.252E+04   -.222E+01 -.127E+02 -.251E+04   0.256E+00 0.497E+00 -.265E+01   0.123E-03 -.392E-03 0.119E-04
   0.630E+02 -.219E+02 0.121E+04   -.632E+02 0.212E+02 -.121E+04   -.225E-01 0.451E+00 -.792E+00   -.896E-04 0.537E-03 -.320E-03
   -.345E+01 -.487E+02 -.124E+04   0.320E+01 0.483E+02 0.124E+04   0.278E+00 0.381E+00 0.458E+00   0.198E-03 0.719E-03 0.339E-04
   -.233E+02 0.683E+02 0.124E+04   0.235E+02 -.683E+02 -.124E+04   -.306E+00 -.586E-01 -.484E+00   -.217E-03 0.359E-03 -.794E-04
   0.960E+01 0.384E+01 0.249E+02   -.958E+01 -.393E+01 -.252E+02   -.164E-01 0.515E-01 0.298E+00   -.575E-03 0.201E-03 0.239E-03
   0.297E+02 -.565E+02 0.124E+04   -.299E+02 0.565E+02 -.124E+04   -.138E-02 0.556E-01 0.109E+00   -.507E-03 -.695E-03 -.119E-03
   0.122E+02 0.197E+02 -.247E+04   -.117E+02 -.192E+02 0.247E+04   -.504E+00 -.589E+00 0.198E+01   0.426E-03 0.209E-03 -.314E-03
   0.525E+02 0.283E+02 -.249E+04   -.520E+02 -.286E+02 0.249E+04   -.446E+00 0.323E+00 0.195E+01   0.560E-03 -.161E-03 -.230E-03
   0.210E+02 0.287E+02 0.248E+04   -.212E+02 -.281E+02 -.248E+04   0.172E+00 -.656E+00 -.241E+01   0.980E-04 0.175E-03 -.220E-04
   0.237E+02 0.958E+01 -.249E+04   -.239E+02 -.911E+01 0.248E+04   0.216E+00 -.495E+00 0.214E+01   -.259E-04 0.804E-03 -.402E-03
   -.384E+02 -.309E+02 0.120E+04   0.384E+02 0.307E+02 -.121E+04   0.229E+00 0.289E+00 -.178E+00   -.450E-03 -.113E-03 0.689E-04
 -----------------------------------------------------------------------------------------------
   0.197E+01 0.256E+01 0.388E+01   -.298E-12 -.291E-12 0.909E-12   -.196E+01 -.252E+01 -.386E+01   0.116E-02 0.171E-03 -.788E-02
 
 
 POSITION                                       TOTAL-FORCE (eV/Angst)
 -----------------------------------------------------------------------------------
      7.71919      4.53798      8.55848         0.022209      0.003482      0.016375
      3.84961      3.36753     10.87480         0.007154      0.003619     -0.003029
      3.04458      4.56345      8.53199         0.008767      0.024621      0.009445
      3.15956      7.17265      8.63356         0.018592     -0.018129      0.004377
      0.02626      7.11541      6.47802        -0.009887      0.001365      0.006977
      6.86921     -1.86395      6.38215         0.016399     -0.005841      0.001842
      7.60091      4.61321      2.15522        -0.068697      0.214727     -0.106017
      2.31359      8.44727      6.52943         0.014048      0.022778      0.009262
      3.21186      7.12920      2.15418        -0.070050     -0.279915     -0.365476
      4.68995      1.99196      6.37113         0.016225      0.001491     -0.009880
      7.55825      1.99244      2.17859        -0.003710     -0.330787     -0.339734
      0.91579      5.81827      2.22920        -0.141368     -0.451924     -0.511124
      3.89922      3.34336      4.21898         0.305897      0.309618      0.747419
      8.55290      0.69327     10.84052        -0.001674      0.008390     -0.007351
      6.16458     -0.65668     10.80487         0.022688      0.007886     -0.003161
      0.13510      1.99744      6.45568        -0.002037      0.005703      0.009280
      7.61963     -3.17682      8.64046         0.020439     -0.010796      0.004249
      3.14664      1.94732      2.16646         0.027379      0.352162     -1.349545
      7.60657      1.86430      8.64379        -0.001099      0.016712     -0.002854
      6.16455      2.02506     10.95081         0.023182      0.003068     -0.000467
      4.63485     -0.64375      6.44268        -0.007002      0.011838      0.009530
      1.60606      1.95188      4.28380        -0.534100      0.166891     -0.051572
      6.76247      5.79622      6.34591        -0.006779     -0.021072      0.008597
      5.38833      3.28144      8.56837        -0.001428     -0.006613     -0.002411
      7.57782     -0.71207      2.20978         0.107452      0.222059     -0.711745
      2.34653      0.68294      6.47227         0.007880     -0.035581     -0.002030
      6.16590     -3.28612     10.86258        -0.002863     -0.011919      0.024098
      3.18145     -0.62937      2.14911         0.045796     -0.121980     -0.489465
      3.76458      0.59958     10.96172         0.019739     -0.003230      0.000962
      1.62850      7.17356      4.41646        -0.048848     -0.388875     -1.031828
      3.11793      1.89584      8.66791         0.010436     -0.001865     -0.006891
      5.38068      0.66260      2.23601         0.112979      0.120357      0.189164
      1.65445      4.58586     10.70768         0.022807      0.005209     -0.002633
      5.43468     -1.97062      2.12453        -0.121614     -0.058275      0.490951
      3.91124      5.87336      4.23897         0.366433      0.226518      0.746682
      2.35182      3.36188      6.40575         0.007917     -0.005219     -0.007940
      5.35278      5.88807      8.58381         0.001253      0.010286      0.014582
      0.95005      0.63025      8.67990         0.016902     -0.001438      0.004256
      3.91265      0.61163      4.27942         0.265764      0.026060      0.141435
      1.53606      2.02418     10.73326         0.000579      0.013904      0.011148
      8.33972     -4.52344      4.22023         0.179563     -0.181189      0.255606
      0.84036      3.21182      2.21174        -0.017190      0.077413      0.212607
      7.63915     -0.65261      8.57736         0.012094     -0.001829      0.000624
      2.38670      5.78022      6.41623         0.006124     -0.004621     -0.001485
      1.65354     -0.62625      4.26913        -0.351654      0.022392     -0.089965
      3.13770      4.56170      2.15198        -0.046787     -0.021679      0.067846
      6.86149      3.26623      6.32542         0.000343      0.003401      0.002915
      0.92736      8.44230      8.75170        -0.009282      0.012548      0.005635
      6.13989      4.54459      4.24607        -0.112756     -0.008624     -0.172442
      8.53054     -1.88116     10.64669         0.017312     -0.011398      0.002192
      1.56957      4.54290      4.36686        -0.543581      0.124264      0.220524
      3.89780      5.86335     10.68247         0.013858      0.018015      0.005698
      5.40245      0.53343      8.60230         0.004369      0.000247     -0.002973
      8.30983     -1.92678      4.30237         0.352732     -0.000460     -0.352383
      8.27367      3.23315      4.31649         0.014495      0.523784      0.230003
      1.56912     -0.61319     10.69548         0.013817     -0.005014     -0.006722
      5.34444      3.37201      2.10648         0.127427     -0.117929      0.389762
      0.19224      4.56382      6.50071         0.002078     -0.007644     -0.002909
      4.55310      7.09766      6.36224         0.018658     -0.017631      0.002779
      3.87601     -1.98129     10.72762         0.017739      0.009948      0.013395
      6.15236      4.56834     10.67847        -0.008458      0.002295      0.004966
      5.34980      5.80426      2.17684         0.319607     -0.068298      0.465373
      7.59474     -3.21042      2.23865         0.104579     -0.161554      0.348957
      0.07181      9.70322      6.30560        -0.002867      0.002936      0.001517
      5.36757     -1.83863      8.63123        -0.000409      0.003169      0.000346
      3.13182     -0.64747      8.74756         0.012173      0.007641     -0.015814
      4.54405      4.61714      6.37964         0.010254      0.010493     -0.000365
      0.85771      3.25202      8.62915         0.005722      0.002687      0.004512
      3.91685     -1.89565      4.25509         0.222064     -0.365885      0.364175
      0.89556      0.63021      2.17466        -0.363528      0.237832      0.210979
      8.40055      0.59723      4.32025        -0.290590     -0.225234      0.358041
      0.84241      5.81117      8.59120        -0.001968      0.006335     -0.004018
      6.13337      2.02702      4.25541        -0.100545     -0.136926     -0.070873
      6.85319      0.66496      6.46016         0.001476      0.004622      0.000777
      6.17666     -3.26324      4.16958        -0.262952      0.107621      0.091720
      8.39546      3.32158     10.73100         0.010384     -0.013783     -0.003348
      8.47499     -4.49841     10.69227         0.023928      0.006853      0.002276
      0.88640      8.47408      2.20398        -0.059391      0.039774      0.216111
      1.71607      7.22971     10.77502         0.011069     -0.006941      0.005728
      6.05459     -0.66038      4.23174         0.202329      0.107087     -0.207243
 -----------------------------------------------------------------------------------
    total drift:                                0.002086      0.034098      0.011195


--------------------------------------------------------------------------------------------------------



  FREE ENERGIE OF THE ION-ELECTRON SYSTEM (eV)
  ---------------------------------------------------
  free  energy   TOTEN  =      -535.00771901 eV

  energy  without entropy=     -535.03395602  energy(sigma->0) =     -535.01646468
 
 d Force = 0.1254693E-02[ 0.254E-03, 0.226E-02]  d Energy = 0.1265034E-02-0.103E-04
 d Force = 0.9115852E+02[ 0.911E+02, 0.912E+02]  d Ewald  = 0.9115852E+02-0.619E-06


--------------------------------------------------------------------------------------------------------


    POTLOK:  cpu time    0.5495: real time    0.5557


--------------------------------------------------------------------------------------------------------


 Conjugate gradient step on ions:
 trial-energy change:   -0.001265  1 .order   -0.001255   -0.002255   -0.000254
  (g-gl).g = 0.126E-02      g.g   = 0.130E-02  gl.gl    = 0.227E-02
 g(Force)  = 0.130E-02   g(Stress)= 0.000E+00 ortho     = 0.516E-04
 gamma     =   0.55413
 trial     =   1.69589
 opt step  =   1.90405  (harmonic =   1.91130) maximal distance =0.00541202
 next E    =  -535.007735   (d E  =  -0.00128)


--------------------------------------------------------------------------------------------------------


  
 reached required accuracy - stopping structural energy minimisation
     LOOP+:  cpu time  494.4071: real time  497.8683
    4ORBIT:  cpu time    0.0000: real time    0.0000
 


 total charge     
 
# of ion       s       p       d       tot
------------------------------------------
    1        0.730   0.620   8.111   9.460
    2        0.717   0.433   8.091   9.241
    3        0.740   0.663   8.129   9.532
    4        0.761   0.709   8.117   9.587
    5        0.760   0.680   8.111   9.552
    6        0.753   0.648   8.105   9.505
    7        0.769   0.547   8.087   9.402
    8        0.747   0.670   8.123   9.541
    9        0.757   0.495   8.121   9.372
   10        0.739   0.632   8.119   9.489
   11        0.748   0.487   8.111   9.347
   12        0.738   0.479   8.116   9.332
   13        0.738   0.666   8.111   9.515
   14        0.747   0.457   8.110   9.314
   15        0.528   0.385   8.531   9.444
   16        0.569   0.585   8.539   9.693
   17        0.557   0.603   8.542   9.703
   18        0.556   0.437   8.562   9.554
   19        0.558   0.609   8.554   9.720
   20        0.518   0.372   8.549   9.438
   21        0.593   0.646   8.551   9.790
   22        0.551   0.594   8.547   9.692
   23        0.572   0.594   8.547   9.713
   24        0.526   0.566   8.555   9.647
   25        0.583   0.473   8.530   9.586
   26        0.564   0.583   8.547   9.694
   27        0.538   0.398   8.549   9.484
   28        0.575   0.458   8.548   9.581
   29        0.521   0.363   8.528   9.413
   30        0.557   0.630   8.572   9.760
   31        0.538   0.562   8.561   9.661
   32        0.481   0.347   8.350   9.178
   33        0.498   0.396   8.342   9.236
   34        0.494   0.358   8.347   9.199
   35        0.470   0.466   8.347   9.283
   36        0.476   0.454   8.362   9.292
   37        0.450   0.426   8.360   9.236
   38        0.480   0.459   8.363   9.302
   39        0.462   0.449   8.350   9.262
   40        0.491   0.361   8.327   9.179
   41        0.477   0.467   8.349   9.292
   42        0.464   0.331   8.340   9.134
   43        0.474   0.455   8.354   9.284
   44        0.481   0.476   8.358   9.315
   45        0.462   0.441   8.353   9.256
   46        0.477   0.354   8.348   9.178
   47        0.486   0.475   8.362   9.322
   48        0.446   0.460   7.305   8.211
   49        0.454   0.473   7.272   8.198
   50        0.464   0.359   7.239   8.063
   51        0.436   0.433   7.236   8.106
   52        0.456   0.376   7.237   8.068
   53        0.429   0.407   7.239   8.075
   54        0.445   0.453   7.257   8.155
   55        0.441   0.457   7.269   8.167
   56        0.481   0.382   7.258   8.121
   57        0.448   0.349   7.240   8.037
   58        0.453   0.443   7.290   8.186
   59        0.438   0.419   7.280   8.137
   60        0.467   0.357   7.253   8.078
   61        0.452   0.356   7.221   8.029
   62        0.461   0.376   7.240   8.077
   63        0.472   0.368   7.266   8.106
   64        0.441   0.419   7.260   8.121
   65        0.437   0.436   7.243   8.115
   66        0.451   0.471   6.206   7.128
   67        0.449   0.465   6.175   7.089
   68        0.449   0.467   6.174   7.091
   69        0.442   0.462   6.172   7.076
   70        0.455   0.367   6.137   6.959
   71        0.437   0.465   6.177   7.080
   72        0.442   0.472   6.185   7.098
   73        0.446   0.480   6.181   7.106
   74        0.459   0.474   6.207   7.140
   75        0.448   0.469   6.190   7.106
   76        0.458   0.390   6.144   6.993
   77        0.461   0.383   6.143   6.987
   78        0.440   0.364   6.141   6.945
   79        0.457   0.387   6.154   6.999
   80        0.448   0.467   6.196   7.111
--------------------------------------------------
tot         42.337  37.663 615.668 695.669
 


 magnetization (x)
 
# of ion       s       p       d       tot
------------------------------------------
    1       -0.024  -0.057   0.431   0.350
    2       -0.011  -0.022   0.376   0.343
    3       -0.021  -0.048   0.382   0.314
    4       -0.026  -0.074   0.431   0.332
    5       -0.019  -0.062   0.383   0.302
    6       -0.016  -0.060   0.355   0.279
    7       -0.020  -0.060   0.359   0.279
    8       -0.016  -0.049   0.273   0.207
    9       -0.016  -0.024   0.275   0.235
   10       -0.020  -0.048   0.309   0.241
   11       -0.017  -0.023   0.308   0.268
   12       -0.015  -0.015   0.267   0.237
   13       -0.027  -0.052   0.393   0.314
   14       -0.021  -0.031   0.354   0.301
   15       -0.017  -0.014   0.305   0.274
   16       -0.014  -0.043   0.300   0.243
   17       -0.024  -0.046   0.340   0.270
   18       -0.011  -0.014   0.243   0.218
   19       -0.021  -0.041   0.335   0.274
   20       -0.018  -0.015   0.265   0.232
   21       -0.019  -0.057   0.300   0.224
   22       -0.021  -0.042   0.315   0.252
   23       -0.023  -0.051   0.246   0.172
   24       -0.019  -0.033   0.278   0.226
   25       -0.015  -0.021   0.300   0.265
   26       -0.010  -0.035   0.246   0.201
   27       -0.027  -0.031   0.305   0.247
   28       -0.019  -0.021   0.262   0.222
   29       -0.022  -0.016   0.306   0.268
   30       -0.023  -0.042   0.299   0.234
   31       -0.017  -0.033   0.262   0.212
   32       -0.014  -0.011   0.715   0.690
   33       -0.018  -0.026   0.737   0.693
   34       -0.014  -0.019   0.703   0.670
   35       -0.027  -0.043   0.749   0.679
   36       -0.014  -0.032   0.644   0.598
   37       -0.020  -0.033   0.694   0.641
   38       -0.022  -0.040   0.748   0.686
   39       -0.019  -0.029   0.736   0.687
   40       -0.020  -0.027   0.804   0.756
   41       -0.024  -0.048   0.737   0.666
   42       -0.011  -0.015   0.725   0.699
   43       -0.023  -0.045   0.769   0.700
   44       -0.014  -0.039   0.678   0.625
   45       -0.025  -0.040   0.746   0.681
   46       -0.008  -0.014   0.624   0.601
   47       -0.015  -0.040   0.660   0.606
   48       -0.020  -0.040   1.702   1.642
   49       -0.012  -0.036   1.804   1.756
   50       -0.003  -0.012   1.854   1.840
   51       -0.010  -0.025   1.877   1.842
   52        0.000  -0.012   1.850   1.839
   53       -0.009  -0.020   1.905   1.876
   54       -0.014  -0.034   1.821   1.772
   55       -0.015  -0.035   1.815   1.765
   56       -0.013  -0.036   1.847   1.798
   57        0.004  -0.007   1.825   1.823
   58       -0.013  -0.040   1.672   1.618
   59       -0.008  -0.032   1.661   1.621
   60       -0.001  -0.016   1.837   1.820
   61        0.001  -0.010   1.913   1.904
   62       -0.003  -0.016   1.837   1.819
   63       -0.001  -0.018   1.740   1.721
   64       -0.003  -0.023   1.742   1.716
   65       -0.009  -0.027   1.896   1.859
   66        0.003  -0.018   2.762   2.748
   67        0.011  -0.014   2.811   2.808
   68        0.000  -0.019   2.888   2.869
   69       -0.001  -0.015   2.863   2.847
   70        0.020   0.002   2.895   2.916
   71       -0.005  -0.022   2.857   2.831
   72        0.002  -0.015   2.839   2.825
   73       -0.004  -0.023   2.851   2.824
   74        0.007  -0.020   2.737   2.724
   75       -0.008  -0.034   2.811   2.769
   76        0.007  -0.013   2.928   2.921
   77        0.012  -0.014   2.932   2.929
   78        0.017   0.002   2.894   2.912
   79        0.009  -0.017   2.913   2.904
   80       -0.006  -0.026   2.803   2.772
--------------------------------------------------
tot         -0.939  -2.368  96.653  93.346
 

 total amount of memory used by VASP MPI-rank0   133005. kBytes
=======================================================================

   base      :      30000. kBytes
   nonlr-proj:      21735. kBytes
   fftplans  :      13111. kBytes
   grid      :      38873. kBytes
   one-center:        311. kBytes
   wavefun   :      28975. kBytes
 
  
  
 General timing and accounting informations for this job:
 ========================================================
  
                  Total CPU time used (sec):    10735.475
                            User time (sec):    10722.315
                          System time (sec):       13.160
                         Elapsed time (sec):    10811.688
  
                   Maximum memory used (kb):      698480.
                   Average memory used (kb):           0.
  
                          Minor page faults:      4286867
                          Major page faults:            0
                 Voluntary context switches:         5970
