ML                                      
           1
     8.978838   -5.208213   -0.021396
    -0.041248   10.351220    0.013020
     0.005411    0.000543   22.918565
   Pt   Pd   Ni   Co   Fe
  14  17  16  18  15
Direct configuration=     1
   0.85230912  0.86276174  0.37436393
   0.43444014  0.54255548  0.46857838
   0.34367026  0.62154122  0.37193013
   0.34272632  0.85850612  0.37612884
   0.02038880  0.69884694  0.28395679
   0.76935776  0.20460636  0.27761297
   0.85049271  0.87358819  0.09433596
   0.26331159  0.94506423  0.28514598
   0.36165749  0.87069314  0.09383582
   0.51346980  0.44790370  0.27772495
   0.84456398  0.61742095  0.09549559
   0.10476018  0.61479015  0.09701473
   0.43665003  0.54268207  0.18418521
   0.93574346  0.54272427  0.46601523
   0.68046914  0.27312762  0.47054707
   0.01945606  0.20943621  0.28045155
   0.84514800  0.10959764  0.37883594
   0.35207211  0.36526496  0.09464985
   0.85891489  0.62762020  0.37101191
   0.68355243  0.53084424  0.46707616
   0.50894472  0.19442528  0.27964004
   0.18004111  0.27914269  0.18692365
   0.76433642  0.94744455  0.27833624
   0.60949844  0.62185804  0.37251216
   0.84554472  0.35663978  0.09700540
   0.26504998  0.19375423  0.27990559
   0.67763622  0.03372734  0.47178211
   0.35481172  0.11771671  0.09403587
   0.43419202  0.27606010  0.46969793
   0.18486628  0.78602145  0.19242816
   0.35196921  0.36357366  0.37347072
   0.60088611  0.36634248  0.09791610
   0.18128706  0.53786132  0.46281651
   0.60574580  0.11439999  0.09319978
   0.43911630  0.78833882  0.18491982
   0.26113685  0.45564581  0.28225523
   0.59283718  0.86136775  0.37712996
   0.10076635  0.10728211  0.37475508
   0.43693261  0.27892050  0.18697223
   0.17727859  0.27819712  0.47017590
   0.92884751  0.03034347  0.18499013
   0.09518033  0.35816871  0.09638963
   0.85582648  0.37259376  0.37400051
   0.25633333  0.69142863  0.28320259
   0.18419532  0.03216769  0.18642769
   0.35223762  0.61791507  0.09387472
   0.77224206  0.69905693  0.27752292
   0.09976373  0.85598268  0.37538379
   0.68731158  0.78484999  0.18546354
   0.91889883  0.27539543  0.46975091
   0.17711899  0.52798335  0.19040337
   0.43704127  0.79727924  0.46485431
   0.60045698  0.35934902  0.37618388
   0.92666372  0.28009985  0.18843015
   0.92492241  0.77770918  0.18876204
   0.18698785  0.02441011  0.47003871
   0.59804946  0.62666308  0.09211382
   0.02218495  0.45638511  0.27969721
   0.50702756  0.94368819  0.27891869
   0.43611864  0.03129861  0.47252247
   0.68996184  0.79702148  0.47087614
   0.59972768  0.86247965  0.09505124
   0.84632066  0.11567147  0.09840293
   0.02104348  0.94076911  0.27756676
   0.58831638  0.10808803  0.37872428
   0.34599485  0.10941166  0.37361888
   0.50855221  0.69697087  0.28096534
   0.10833051  0.37800229  0.37113501
   0.43628600  0.03637461  0.18604811
   0.10019526  0.11129131  0.09491664
   0.93791377  0.52959772  0.18907929
   0.10573358  0.62869425  0.37072034
   0.68546331  0.54070506  0.18600785
   0.77423552  0.45653810  0.27752136
   0.68794483  0.03087748  0.18255496
   0.93560004  0.78701193  0.46495370
   0.93097305  0.03340698  0.47235221
   0.10266150  0.87030458  0.09576701
   0.19413451  0.78783207  0.46420122
   0.67547439  0.27605733  0.18511607
Direct configuration=     2
   0.86073937  0.87757370  0.37493840
   0.43165185  0.54379912  0.47023320
   0.34626725  0.61226827  0.37224812
   0.35468120  0.87615261  0.37632514
   0.01047103  0.69241018  0.27928042
   0.76333591  0.20579523  0.27912661
   0.85049271  0.87358819  0.09433596
   0.26798491  0.95008054  0.28295993
   0.36165749  0.87069314  0.09383582
   0.52289894  0.45514414  0.27711890
   0.84456398  0.61742095  0.09549559
   0.10476018  0.61479015  0.09701473
   0.43665003  0.54268207  0.18418521
   0.94459827  0.54159184  0.46709718
   0.68255285  0.27966489  0.47064601
   0.01943486  0.20517216  0.28141366
   0.84945477  0.11735185  0.37785003
   0.35207211  0.36526496  0.09464985
   0.85158969  0.61070394  0.37221239
   0.68446133  0.53574814  0.46946283
   0.52132866  0.19864207  0.28028797
   0.18004111  0.27914269  0.18692365
   0.76085934  0.94226580  0.27772242
   0.60021902  0.61760477  0.37144431
   0.84554472  0.35663978  0.09700540
   0.25761270  0.19278655  0.28009041
   0.67755078  0.02711482  0.47320239
   0.35481172  0.11771671  0.09403587
   0.42617022  0.27172198  0.47071001
   0.18486628  0.78602145  0.19242816
   0.34601539  0.35945380  0.37470972
   0.60088611  0.36634248  0.09791610
   0.17911655  0.53536531  0.46349167
   0.60574580  0.11439999  0.09319978
   0.43911630  0.78833882  0.18491982
   0.26296464  0.45797610  0.28110795
   0.59591028  0.86523559  0.37638961
   0.10206875  0.10833143  0.37613297
   0.43693261  0.27892050  0.18697223
   0.17425356  0.27634932  0.46868389
   0.92884751  0.03034347  0.18499013
   0.09518033  0.35816871  0.09638963
   0.85541163  0.37105071  0.37320094
   0.26364656  0.69186940  0.28101400
   0.18419532  0.03216769  0.18642769
   0.35223762  0.61791507  0.09387472
   0.76955242  0.69941794  0.27629210
   0.10207636  0.86521941  0.37790847
   0.68731158  0.78484999  0.18546354
   0.92840745  0.28071481  0.46883487
   0.17711899  0.52798335  0.19040337
   0.43526679  0.79211401  0.46624633
   0.60231242  0.35718464  0.37484189
   0.92666372  0.28009985  0.18843015
   0.92492241  0.77770918  0.18876204
   0.18542452  0.02437484  0.46796932
   0.59804946  0.62666308  0.09211382
   0.02053056  0.45381159  0.28012281
   0.51012651  0.94229342  0.27856017
   0.43129222  0.02792282  0.47072201
   0.68925933  0.79466012  0.46970572
   0.59972768  0.86247965  0.09505124
   0.84632066  0.11567147  0.09840293
   0.01690456  0.94325629  0.27704105
   0.58922453  0.11151671  0.37735919
   0.34642950  0.11077723  0.37700127
   0.50999636  0.70013750  0.27973634
   0.10200647  0.37222092  0.37283059
   0.43628600  0.03637461  0.18604811
   0.10019526  0.11129131  0.09491664
   0.93791377  0.52959772  0.18907929
   0.09690898  0.61573094  0.37285311
   0.68546331  0.54070506  0.18600785
   0.77124633  0.45338610  0.27798673
   0.68794483  0.03087748  0.18255496
   0.93818397  0.79106345  0.46599687
   0.93502338  0.03428732  0.47148502
   0.10266150  0.87030458  0.09576701
   0.19020848  0.78748231  0.46639823
   0.67547439  0.27605733  0.18511607
Direct configuration=     3
   0.86108392  0.87817907  0.37496188
   0.43153789  0.54384994  0.47030084
   0.34637339  0.61188928  0.37226111
   0.35516981  0.87687383  0.37633316
   0.01006568  0.69214711  0.27908930
   0.76308979  0.20584382  0.27918848
   0.85049271  0.87358819  0.09433596
   0.26817591  0.95028556  0.28287059
   0.36165749  0.87069314  0.09383582
   0.52328432  0.45544006  0.27709414
   0.84456398  0.61742095  0.09549559
   0.10476018  0.61479015  0.09701473
   0.43665003  0.54268207  0.18418521
   0.94496018  0.54154556  0.46714140
   0.68263801  0.27993207  0.47065006
   0.01943400  0.20499789  0.28145299
   0.84963079  0.11766877  0.37780974
   0.35207211  0.36526496  0.09464985
   0.85129030  0.61001256  0.37226145
   0.68449847  0.53594857  0.46956037
   0.52183480  0.19881441  0.28031445
   0.18004111  0.27914269  0.18692365
   0.76071723  0.94205414  0.27769733
   0.59983976  0.61743094  0.37140067
   0.84554472  0.35663978  0.09700540
   0.25730873  0.19274700  0.28009797
   0.67754728  0.02684456  0.47326044
   0.35481172  0.11771671  0.09403587
   0.42584236  0.27154468  0.47075138
   0.18486628  0.78602145  0.19242816
   0.34577205  0.35928542  0.37476036
   0.60088611  0.36634248  0.09791610
   0.17902784  0.53526330  0.46351926
   0.60574580  0.11439999  0.09319978
   0.43911630  0.78833882  0.18491982
   0.26303935  0.45807134  0.28106106
   0.59603588  0.86539367  0.37635935
   0.10212198  0.10837432  0.37618929
   0.43693261  0.27892050  0.18697223
   0.17412992  0.27627380  0.46862291
   0.92884751  0.03034347  0.18499013
   0.09518033  0.35816871  0.09638963
   0.85539467  0.37098764  0.37316826
   0.26394546  0.69188742  0.28092455
   0.18419532  0.03216769  0.18642769
   0.35223762  0.61791507  0.09387472
   0.76944249  0.69943269  0.27624180
   0.10217088  0.86559693  0.37801166
   0.68731158  0.78484999  0.18546354
   0.92879607  0.28093222  0.46879743
   0.17711899  0.52798335  0.19040337
   0.43519427  0.79190290  0.46630323
   0.60238825  0.35709618  0.37478704
   0.92666372  0.28009985  0.18843015
   0.92492241  0.77770918  0.18876204
   0.18536062  0.02437340  0.46788474
   0.59804946  0.62666308  0.09211382
   0.02046294  0.45370641  0.28014020
   0.51025317  0.94223642  0.27854552
   0.43109496  0.02778485  0.47064843
   0.68923062  0.79456360  0.46965789
   0.59972768  0.86247965  0.09505124
   0.84632066  0.11567147  0.09840293
   0.01673540  0.94335794  0.27701956
   0.58926164  0.11165684  0.37730340
   0.34644726  0.11083304  0.37713951
   0.51005539  0.70026692  0.27968611
   0.10174800  0.37198463  0.37289989
   0.43628600  0.03637461  0.18604811
   0.10019526  0.11129131  0.09491664
   0.93791377  0.52959772  0.18907929
   0.09654832  0.61520112  0.37294028
   0.68546331  0.54070506  0.18600785
   0.77112416  0.45325727  0.27800575
   0.68794483  0.03087748  0.18255496
   0.93828958  0.79122904  0.46603950
   0.93518892  0.03432330  0.47144958
   0.10266150  0.87030458  0.09576701
   0.19004802  0.78746802  0.46648802
   0.67547439  0.27605733  0.18511607
Direct configuration=     4
   0.86123761  0.87440070  0.37533263
   0.42970694  0.54368379  0.47228337
   0.34339374  0.61548616  0.37207517
   0.35542173  0.87359111  0.37643933
   0.00771878  0.69219632  0.27919559
   0.76704871  0.20493598  0.27981805
   0.85049271  0.87358819  0.09433596
   0.26731530  0.95025374  0.28227742
   0.36165749  0.87069314  0.09383582
   0.52564138  0.45526668  0.27676944
   0.84456398  0.61742095  0.09549559
   0.10476018  0.61479015  0.09701473
   0.43665003  0.54268207  0.18418521
   0.94869292  0.54125440  0.46873566
   0.68363036  0.28087903  0.47062578
   0.01541467  0.20225871  0.28171034
   0.85119697  0.12488951  0.37758433
   0.35207211  0.36526496  0.09464985
   0.84806322  0.60751228  0.37244719
   0.68584343  0.54027927  0.47146238
   0.52039110  0.20125344  0.28090079
   0.18004111  0.27914269  0.18692365
   0.75857117  0.94045139  0.27721389
   0.60244737  0.61977272  0.37155694
   0.84554472  0.35663978  0.09700540
   0.26020005  0.19510419  0.28069221
   0.67894548  0.02629338  0.47409490
   0.35481172  0.11771671  0.09403587
   0.42151971  0.27014043  0.47204360
   0.18486628  0.78602145  0.19242816
   0.34229215  0.35435805  0.37517229
   0.60088611  0.36634248  0.09791610
   0.17908733  0.53323700  0.46403798
   0.60574580  0.11439999  0.09319978
   0.43911630  0.78833882  0.18491982
   0.26393723  0.45858928  0.27980194
   0.59808037  0.86817453  0.37568775
   0.10521115  0.11125253  0.37763139
   0.43693261  0.27892050  0.18697223
   0.17073958  0.27505874  0.46748668
   0.92884751  0.03034347  0.18499013
   0.09518033  0.35816871  0.09638963
   0.85447349  0.36815188  0.37287560
   0.26822651  0.69280164  0.28037899
   0.18419532  0.03216769  0.18642769
   0.35223762  0.61791507  0.09387472
   0.76826666  0.70076625  0.27591231
   0.10328886  0.86966043  0.37896817
   0.68731158  0.78484999  0.18546354
   0.93687314  0.28535810  0.46767497
   0.17711899  0.52798335  0.19040337
   0.43249516  0.78737580  0.46681188
   0.60283784  0.35524730  0.37404386
   0.92666372  0.28009985  0.18843015
   0.92492241  0.77770918  0.18876204
   0.18286916  0.02424610  0.46620847
   0.59804946  0.62666308  0.09211382
   0.02032327  0.45181743  0.28070905
   0.51255616  0.94117503  0.27827430
   0.42814885  0.02562358  0.46947794
   0.68878931  0.79149138  0.46829566
   0.59972768  0.86247965  0.09505124
   0.84632066  0.11567147  0.09840293
   0.01385329  0.94361441  0.27665856
   0.59490226  0.11838064  0.37669647
   0.34593791  0.11297896  0.37891737
   0.51050123  0.70251551  0.27858620
   0.09649192  0.36680066  0.37446551
   0.43628600  0.03637461  0.18604811
   0.10019526  0.11129131  0.09491664
   0.93791377  0.52959772  0.18907929
   0.09593873  0.61117131  0.37295985
   0.68546331  0.54070506  0.18600785
   0.76827132  0.45075683  0.27854855
   0.68794483  0.03087748  0.18255496
   0.93931955  0.79281881  0.46647498
   0.93891423  0.03542540  0.47066032
   0.10266150  0.87030458  0.09576701
   0.18937659  0.78834140  0.46746972
   0.67547439  0.27605733  0.18511607
Direct configuration=     5
   0.86125721  0.87391891  0.37537991
   0.42947347  0.54366260  0.47253617
   0.34301380  0.61594481  0.37205146
   0.35545386  0.87317252  0.37645287
   0.00741953  0.69220260  0.27920914
   0.76755353  0.20482022  0.27989833
   0.85049271  0.87358819  0.09433596
   0.26720557  0.95024969  0.28220178
   0.36165749  0.87069314  0.09383582
   0.52594194  0.45524458  0.27672804
   0.84456398  0.61742095  0.09549559
   0.10476018  0.61479015  0.09701473
   0.43665003  0.54268207  0.18418521
   0.94916890  0.54121727  0.46893895
   0.68375690  0.28099978  0.47062268
   0.01490216  0.20190943  0.28174316
   0.85139668  0.12581024  0.37755559
   0.35207211  0.36526496  0.09464985
   0.84765172  0.60719347  0.37247087
   0.68601493  0.54083149  0.47170491
   0.52020701  0.20156445  0.28097555
   0.18004111  0.27914269  0.18692365
   0.75829752  0.94024702  0.27715225
   0.60277987  0.62007132  0.37157687
   0.84554472  0.35663978  0.09700540
   0.26056873  0.19540476  0.28076799
   0.67912377  0.02622310  0.47420130
   0.35481172  0.11771671  0.09403587
   0.42096852  0.26996137  0.47220838
   0.18486628  0.78602145  0.19242816
   0.34184841  0.35372975  0.37522481
   0.60088611  0.36634248  0.09791610
   0.17909491  0.53297862  0.46410413
   0.60574580  0.11439999  0.09319978
   0.43911630  0.78833882  0.18491982
   0.26405172  0.45865533  0.27964139
   0.59834107  0.86852913  0.37560211
   0.10560505  0.11161954  0.37781528
   0.43693261  0.27892050  0.18697223
   0.17030727  0.27490381  0.46734179
   0.92884751  0.03034347  0.18499013
   0.09518033  0.35816871  0.09638963
   0.85435603  0.36779029  0.37283828
   0.26877240  0.69291821  0.28030943
   0.18419532  0.03216769  0.18642769
   0.35223762  0.61791507  0.09387472
   0.76811672  0.70093630  0.27587030
   0.10343141  0.87017857  0.37909014
   0.68731158  0.78484999  0.18546354
   0.93790307  0.28592246  0.46753185
   0.17711899  0.52798335  0.19040337
   0.43215099  0.78679854  0.46687674
   0.60289517  0.35501155  0.37394910
   0.92666372  0.28009985  0.18843015
   0.92492241  0.77770918  0.18876204
   0.18255147  0.02422987  0.46599472
   0.59804946  0.62666308  0.09211382
   0.02030546  0.45157656  0.28078159
   0.51284982  0.94103969  0.27823972
   0.42777319  0.02534799  0.46932869
   0.68873304  0.79109963  0.46812196
   0.59972768  0.86247965  0.09505124
   0.84632066  0.11567147  0.09840293
   0.01348578  0.94364712  0.27661252
   0.59562151  0.11923801  0.37661907
   0.34587296  0.11325259  0.37914407
   0.51055808  0.70280223  0.27844594
   0.09582171  0.36613963  0.37466514
   0.43628600  0.03637461  0.18604811
   0.10019526  0.11129131  0.09491664
   0.93791377  0.52959772  0.18907929
   0.09586100  0.61065745  0.37296235
   0.68546331  0.54070506  0.18600785
   0.76790755  0.45043799  0.27861776
   0.68794483  0.03087748  0.18255496
   0.93945088  0.79302152  0.46653051
   0.93938925  0.03556594  0.47055968
   0.10266150  0.87030458  0.09576701
   0.18929098  0.78845277  0.46759490
   0.67547439  0.27605733  0.18511607
Direct configuration=     6
   0.86113447  0.87344095  0.37516200
   0.42836079  0.54254773  0.47304391
   0.34186469  0.61508183  0.37208592
   0.35416517  0.87219692  0.37614089
   0.00764004  0.69276194  0.28057399
   0.76584521  0.20389273  0.27928614
   0.85049271  0.87358819  0.09433596
   0.26610455  0.94918328  0.28320260
   0.36165749  0.87069314  0.09383582
   0.52502405  0.45553004  0.27707373
   0.84456398  0.61742095  0.09549559
   0.10476018  0.61479015  0.09701473
   0.43665003  0.54268207  0.18418521
   0.94900976  0.54187744  0.46975566
   0.68387449  0.28080846  0.47065952
   0.01575150  0.20078113  0.28139702
   0.85028142  0.12346613  0.37829830
   0.35207211  0.36526496  0.09464985
   0.84823803  0.60767975  0.37319230
   0.68702379  0.54241568  0.47303707
   0.51910150  0.19980361  0.28105728
   0.18004111  0.27914269  0.18692365
   0.75814590  0.94021726  0.27728756
   0.60147287  0.62027669  0.37200555
   0.84554472  0.35663978  0.09700540
   0.26187353  0.19665376  0.28095672
   0.68050694  0.02661170  0.47437823
   0.35481172  0.11771671  0.09403587
   0.42027649  0.27064761  0.47362576
   0.18486628  0.78602145  0.19242816
   0.34340084  0.35718691  0.37563761
   0.60088611  0.36634248  0.09791610
   0.18045461  0.53160208  0.46455926
   0.60574580  0.11439999  0.09319978
   0.43911630  0.78833882  0.18491982
   0.26440698  0.45827735  0.27920867
   0.59993323  0.87061192  0.37523258
   0.10481426  0.11171455  0.37854025
   0.43693261  0.27892050  0.18697223
   0.16822283  0.27519846  0.46695615
   0.92884751  0.03034347  0.18499013
   0.09518033  0.35816871  0.09638963
   0.85352879  0.36760505  0.37298097
   0.26979176  0.69393823  0.27976195
   0.18419532  0.03216769  0.18642769
   0.35223762  0.61791507  0.09387472
   0.76765733  0.70188161  0.27576121
   0.10472302  0.87111602  0.37909670
   0.68731158  0.78484999  0.18546354
   0.94340503  0.28902310  0.46681098
   0.17711899  0.52798335  0.19040337
   0.43089438  0.78483268  0.46701873
   0.60268606  0.35430324  0.37392480
   0.92666372  0.28009985  0.18843015
   0.92492241  0.77770918  0.18876204
   0.18034816  0.02438814  0.46530445
   0.59804946  0.62666308  0.09211382
   0.02149249  0.45187538  0.28119868
   0.51344136  0.94137729  0.27812123
   0.42655803  0.02431236  0.46859072
   0.68807753  0.78916815  0.46718024
   0.59972768  0.86247965  0.09505124
   0.84632066  0.11567147  0.09840293
   0.01255660  0.94378739  0.27634681
   0.59819811  0.12253817  0.37642750
   0.34627193  0.11262039  0.37958498
   0.51029010  0.70293119  0.27797807
   0.09499743  0.36464107  0.37566949
   0.43628600  0.03637461  0.18604811
   0.10019526  0.11129131  0.09491664
   0.93791377  0.52959772  0.18907929
   0.09590819  0.61018784  0.37247642
   0.68546331  0.54070506  0.18600785
   0.76750816  0.44928398  0.27913177
   0.68794483  0.03087748  0.18255496
   0.93954118  0.79239515  0.46691752
   0.94117453  0.03626702  0.46968670
   0.10266150  0.87030458  0.09576701
   0.18987011  0.78936501  0.46804687
   0.67547439  0.27605733  0.18511607
Direct configuration=     7
   0.86106845  0.87318387  0.37504478
   0.42776230  0.54194806  0.47331701
   0.34124659  0.61461765  0.37210446
   0.35347199  0.87167216  0.37597308
   0.00775866  0.69306280  0.28130813
   0.76492632  0.20339384  0.27895685
   0.85049271  0.87358819  0.09433596
   0.26551233  0.94860967  0.28374093
   0.36165749  0.87069314  0.09383582
   0.52453032  0.45568359  0.27725968
   0.84456398  0.61742095  0.09549559
   0.10476018  0.61479015  0.09701473
   0.43665003  0.54268207  0.18418521
   0.94892416  0.54223254  0.47019496
   0.68393774  0.28070555  0.47067934
   0.01620835  0.20017423  0.28121084
   0.84968154  0.12220526  0.37869779
   0.35207211  0.36526496  0.09464985
   0.84855341  0.60794132  0.37358035
   0.68756644  0.54326780  0.47375363
   0.51850686  0.19885647  0.28110124
   0.18004111  0.27914269  0.18692365
   0.75806434  0.94020126  0.27736035
   0.60076986  0.62038715  0.37223614
   0.84554472  0.35663978  0.09700540
   0.26257537  0.19732559  0.28105824
   0.68125094  0.02682073  0.47447339
   0.35481172  0.11771671  0.09403587
   0.41990426  0.27101674  0.47438815
   0.18486628  0.78602145  0.19242816
   0.34423587  0.35904647  0.37585966
   0.60088611  0.36634248  0.09791610
   0.18118598  0.53086166  0.46480408
   0.60574580  0.11439999  0.09319978
   0.43911630  0.78833882  0.18491982
   0.26459808  0.45807404  0.27897591
   0.60078964  0.87173223  0.37503382
   0.10438891  0.11176566  0.37893021
   0.43693261  0.27892050  0.18697223
   0.16710163  0.27535695  0.46674872
   0.92884751  0.03034347  0.18499013
   0.09518033  0.35816871  0.09638963
   0.85308382  0.36750541  0.37305772
   0.27034006  0.69448689  0.27946747
   0.18419532  0.03216769  0.18642769
   0.35223762  0.61791507  0.09387472
   0.76741023  0.70239008  0.27570253
   0.10541777  0.87162026  0.37910024
   0.68731158  0.78484999  0.18546354
   0.94636448  0.29069090  0.46642324
   0.17711899  0.52798335  0.19040337
   0.43021846  0.78377527  0.46709510
   0.60257358  0.35392225  0.37391173
   0.92666372  0.28009985  0.18843015
   0.92492241  0.77770918  0.18876204
   0.17916303  0.02447327  0.46493316
   0.59804946  0.62666308  0.09211382
   0.02213099  0.45203611  0.28142303
   0.51375954  0.94155887  0.27805750
   0.42590441  0.02375531  0.46819378
   0.68772494  0.78812922  0.46667370
   0.59972768  0.86247965  0.09505124
   0.84632066  0.11567147  0.09840293
   0.01205680  0.94386283  0.27620388
   0.59958403  0.12431329  0.37632446
   0.34648653  0.11228034  0.37982215
   0.51014597  0.70300056  0.27772641
   0.09455406  0.36383501  0.37620972
   0.43628600  0.03637461  0.18604811
   0.10019526  0.11129131  0.09491664
   0.93791377  0.52959772  0.18907929
   0.09593357  0.60993523  0.37221505
   0.68546331  0.54070506  0.18600785
   0.76729334  0.44866325  0.27940824
   0.68794483  0.03087748  0.18255496
   0.93958975  0.79205823  0.46712570
   0.94213482  0.03664412  0.46921713
   0.10266150  0.87030458  0.09576701
   0.19018162  0.78985570  0.46828997
   0.67547439  0.27605733  0.18511607
Direct configuration=     8
   0.86115127  0.87290387  0.37467047
   0.42810441  0.54119972  0.47346000
   0.34115644  0.61404191  0.37181968
   0.35460514  0.87192225  0.37634789
   0.00784826  0.69269957  0.28133436
   0.76573081  0.20311967  0.27882938
   0.85049271  0.87358819  0.09433596
   0.26435695  0.94872832  0.28373488
   0.36165749  0.87069314  0.09383582
   0.52468331  0.45587482  0.27756106
   0.84456398  0.61742095  0.09549559
   0.10476018  0.61479015  0.09701473
   0.43665003  0.54268207  0.18418521
   0.94984476  0.54301542  0.47045962
   0.68396841  0.28089825  0.47079925
   0.01590068  0.20026608  0.28149862
   0.84909080  0.12055637  0.37845820
   0.35207211  0.36526496  0.09464985
   0.84794242  0.60810909  0.37469274
   0.68756326  0.54283345  0.47457977
   0.51751139  0.19785423  0.28092131
   0.18004111  0.27914269  0.18692365
   0.75848123  0.94082614  0.27742733
   0.60049047  0.62061969  0.37266331
   0.84554472  0.35663978  0.09700540
   0.26264045  0.19687104  0.28150247
   0.68156586  0.02615248  0.47456337
   0.35481172  0.11771671  0.09403587
   0.41976648  0.27118189  0.47513756
   0.18486628  0.78602145  0.19242816
   0.34521427  0.35967798  0.37625590
   0.60088611  0.36634248  0.09791610
   0.18124790  0.53083807  0.46526309
   0.60574580  0.11439999  0.09319978
   0.43911630  0.78833882  0.18491982
   0.26453341  0.45794866  0.27905202
   0.60018860  0.87207212  0.37495285
   0.10413623  0.11239340  0.37877887
   0.43693261  0.27892050  0.18697223
   0.16767057  0.27665263  0.46692707
   0.92884751  0.03034347  0.18499013
   0.09518033  0.35816871  0.09638963
   0.85279758  0.36726406  0.37319504
   0.27029268  0.69443917  0.27924198
   0.18419532  0.03216769  0.18642769
   0.35223762  0.61791507  0.09387472
   0.76713882  0.70202870  0.27578033
   0.10556443  0.87122780  0.37907092
   0.68731158  0.78484999  0.18546354
   0.94813460  0.29233096  0.46617510
   0.17711899  0.52798335  0.19040337
   0.43054454  0.78403047  0.46685688
   0.60234707  0.35450700  0.37416852
   0.92666372  0.28009985  0.18843015
   0.92492241  0.77770918  0.18876204
   0.17805921  0.02507904  0.46508420
   0.59804946  0.62666308  0.09211382
   0.02277940  0.45211504  0.28171326
   0.51315282  0.94197220  0.27794727
   0.42589970  0.02361459  0.46791599
   0.68690738  0.78765939  0.46627698
   0.59972768  0.86247965  0.09505124
   0.84632066  0.11567147  0.09840293
   0.01256959  0.94402281  0.27593376
   0.59921419  0.12416277  0.37639730
   0.34765304  0.11315279  0.37996357
   0.50977199  0.70266613  0.27773807
   0.09481275  0.36342410  0.37623812
   0.43628600  0.03637461  0.18604811
   0.10019526  0.11129131  0.09491664
   0.93791377  0.52959772  0.18907929
   0.09577283  0.60998243  0.37233292
   0.68546331  0.54070506  0.18600785
   0.76745434  0.44910154  0.27984580
   0.68794483  0.03087748  0.18255496
   0.93950719  0.79142483  0.46735814
   0.94217638  0.03657882  0.46869018
   0.10266150  0.87030458  0.09576701
   0.19068274  0.79007466  0.46845189
   0.67547439  0.27605733  0.18511607
Direct configuration=     9
   0.86119673  0.87275016  0.37446498
   0.42829223  0.54078889  0.47353849
   0.34110695  0.61372584  0.37166334
   0.35522721  0.87205954  0.37655365
   0.00789745  0.69250016  0.28134876
   0.76617246  0.20296916  0.27875940
   0.85049271  0.87358819  0.09433596
   0.26372267  0.94879346  0.28373155
   0.36165749  0.87069314  0.09383582
   0.52476730  0.45597981  0.27772651
   0.84456398  0.61742095  0.09549559
   0.10476018  0.61479015  0.09701473
   0.43665003  0.54268207  0.18418521
   0.95035015  0.54344521  0.47060491
   0.68398525  0.28100404  0.47086508
   0.01573177  0.20031650  0.28165660
   0.84876650  0.11965117  0.37832667
   0.35207211  0.36526496  0.09464985
   0.84760700  0.60820119  0.37530342
   0.68756151  0.54259500  0.47503331
   0.51696489  0.19730402  0.28082253
   0.18004111  0.27914269  0.18692365
   0.75871008  0.94116918  0.27746410
   0.60033709  0.62074734  0.37289782
   0.84554472  0.35663978  0.09700540
   0.26267618  0.19662151  0.28174635
   0.68173875  0.02578562  0.47461276
   0.35481172  0.11771671  0.09403587
   0.41969084  0.27127256  0.47554896
   0.18486628  0.78602145  0.19242816
   0.34575139  0.36002466  0.37647343
   0.60088611  0.36634248  0.09791610
   0.18128189  0.53082512  0.46551509
   0.60574580  0.11439999  0.09319978
   0.43911630  0.78833882  0.18491982
   0.26449790  0.45787982  0.27909381
   0.59985864  0.87225871  0.37490840
   0.10399752  0.11273802  0.37869580
   0.43693261  0.27892050  0.18697223
   0.16798290  0.27736393  0.46702498
   0.92884751  0.03034347  0.18499013
   0.09518033  0.35816871  0.09638963
   0.85264044  0.36713156  0.37327043
   0.27026667  0.69441298  0.27911819
   0.18419532  0.03216769  0.18642769
   0.35223762  0.61791507  0.09387472
   0.76698982  0.70183032  0.27582305
   0.10564495  0.87101235  0.37905483
   0.68731158  0.78484999  0.18546354
   0.94910636  0.29323132  0.46603888
   0.17711899  0.52798335  0.19040337
   0.43072354  0.78417057  0.46672609
   0.60222272  0.35482801  0.37430949
   0.92666372  0.28009985  0.18843015
   0.92492241  0.77770918  0.18876204
   0.17745324  0.02541159  0.46516711
   0.59804946  0.62666308  0.09211382
   0.02313537  0.45215836  0.28187258
   0.51281974  0.94219911  0.27788676
   0.42589712  0.02353734  0.46776349
   0.68645856  0.78740146  0.46605919
   0.59972768  0.86247965  0.09505124
   0.84632066  0.11567147  0.09840293
   0.01285109  0.94411063  0.27578547
   0.59901116  0.12408013  0.37643729
   0.34829343  0.11363175  0.38004120
   0.50956669  0.70248253  0.27774447
   0.09495476  0.36319852  0.37625371
   0.43628600  0.03637461  0.18604811
   0.10019526  0.11129131  0.09491664
   0.93791377  0.52959772  0.18907929
   0.09568458  0.61000834  0.37239762
   0.68546331  0.54070506  0.18600785
   0.76754273  0.44934215  0.28008600
   0.68794483  0.03087748  0.18255496
   0.93946187  0.79107710  0.46748575
   0.94219919  0.03654297  0.46840090
   0.10266150  0.87030458  0.09576701
   0.19095784  0.79019487  0.46854078
   0.67547439  0.27605733  0.18511607
Direct configuration=    10
   0.86162133  0.87209863  0.37409936
   0.42859995  0.54081724  0.47367739
   0.34067306  0.61364705  0.37158295
   0.35553183  0.87241670  0.37630952
   0.00663312  0.69127907  0.28170146
   0.76572101  0.20373339  0.27885243
   0.85049271  0.87358819  0.09433596
   0.26306990  0.94793948  0.28400955
   0.36165749  0.87069314  0.09383582
   0.52496708  0.45567928  0.27792507
   0.84456398  0.61742095  0.09549559
   0.10476018  0.61479015  0.09701473
   0.43665003  0.54268207  0.18418521
   0.95143354  0.54382174  0.47102146
   0.68437846  0.28101199  0.47098621
   0.01660389  0.20088692  0.28190145
   0.84843196  0.11960074  0.37817534
   0.35207211  0.36526496  0.09464985
   0.84756077  0.60826552  0.37594248
   0.68738545  0.54192117  0.47604419
   0.51823668  0.19778397  0.28077352
   0.18004111  0.27914269  0.18692365
   0.75824884  0.94067259  0.27730157
   0.60074775  0.62124334  0.37328722
   0.84554472  0.35663978  0.09700540
   0.26206604  0.19710526  0.28215709
   0.68208245  0.02548241  0.47466406
   0.35481172  0.11771671  0.09403587
   0.41928607  0.27059534  0.47627243
   0.18486628  0.78602145  0.19242816
   0.34625759  0.35907788  0.37691560
   0.60088611  0.36634248  0.09791610
   0.18221290  0.53180693  0.46593989
   0.60574580  0.11439999  0.09319978
   0.43911630  0.78833882  0.18491982
   0.26428218  0.45747542  0.27917696
   0.59897367  0.87189206  0.37482335
   0.10437156  0.11367912  0.37843716
   0.43693261  0.27892050  0.18697223
   0.16936028  0.27890763  0.46740346
   0.92884751  0.03034347  0.18499013
   0.09518033  0.35816871  0.09638963
   0.85226904  0.36646595  0.37344803
   0.27004800  0.69425354  0.27905283
   0.18419532  0.03216769  0.18642769
   0.35223762  0.61791507  0.09387472
   0.76709052  0.70149434  0.27600644
   0.10583432  0.87047592  0.37928903
   0.68731158  0.78484999  0.18546354
   0.94940326  0.29407751  0.46572760
   0.17711899  0.52798335  0.19040337
   0.43164658  0.78427815  0.46647670
   0.60201844  0.35540269  0.37452067
   0.92666372  0.28009985  0.18843015
   0.92492241  0.77770918  0.18876204
   0.17635771  0.02610755  0.46537384