ML                                      
           1
     8.967421   -5.101498   -0.041796
     0.060713   10.314317    0.032410
    -0.010143    0.025135   22.947952
   Pt   Pd   Ni   Co   Fe
  16  16  17  17  14
Direct configuration=     1
   0.44915326  0.04306611  0.18786188
   0.43795632  0.03678877  0.46932941
   0.18514539  0.28648108  0.47189327
   0.09273042  0.61226228  0.36825306
   0.92898566  0.78347442  0.46813431
   0.35758682  0.12066480  0.37258717
   0.35998808  0.87331294  0.09486589
   0.76511620  0.68430871  0.27910574
   0.18305632  0.29400085  0.18272713
   0.51564606  0.20259651  0.28301447
   0.35871727  0.60717005  0.09635633
   0.84661327  0.11568176  0.09147337
   0.92920456  0.52946480  0.46787002
   0.92501994  0.27473870  0.46982196
   0.60794464  0.36997129  0.37140340
   0.02030549  0.94263885  0.28107302
   0.10218724  0.12470150  0.37429674
   0.35693430  0.61406253  0.37587412
   0.92562986  0.02558538  0.18477826
   0.76400285  0.94876821  0.28373226
   0.18097757  0.03628924  0.47077980
   0.18649551  0.03625390  0.18392496
   0.85056071  0.86305778  0.37728611
   0.61216420  0.62200196  0.37535648
   0.84396037  0.36772675  0.09744167
   0.44624548  0.29809542  0.18769018
   0.43363450  0.52926990  0.46998456
   0.43260872  0.29008142  0.46792856
   0.00937789  0.20584705  0.28114736
   0.18035547  0.78159906  0.18988841
   0.09556519  0.61224082  0.09616877
   0.92290712  0.02995445  0.46830384
   0.51114881  0.95276769  0.28566982
   0.68550283  0.03563082  0.18596404
   0.76292593  0.20675597  0.28246757
   0.10309478  0.11603712  0.08880027
   0.37524900  0.37680157  0.37724858
   0.34885344  0.86231119  0.37393479
   0.35519268  0.12495710  0.09181458
   0.68303304  0.03507772  0.46680854
   0.18170953  0.52672751  0.46947120
   0.26133810  0.69825489  0.27908313
   0.26238139  0.94294849  0.28471990
   0.18168927  0.78427978  0.46694731
   0.44663017  0.54237686  0.18747580
   0.34800990  0.35872331  0.09273106
   0.68246715  0.28043040  0.46714719
   0.51617042  0.69599940  0.28044267
   0.84885460  0.62664638  0.09595015
   0.26723260  0.44796622  0.28134854
   0.01065936  0.45627313  0.27657459
   0.68515995  0.78155212  0.46718787
   0.60426379  0.87357804  0.37769737
   0.59908012  0.12469962  0.09177068
   0.84743687  0.36005025  0.37184514
   0.60889832  0.61477679  0.09423650
   0.92308742  0.76985008  0.18331721
   0.08347885  0.86606526  0.09423620
   0.43997944  0.78338190  0.18792949
   0.68799126  0.54184763  0.18203101
   0.18456641  0.53820270  0.18986537
   0.44773612  0.78427839  0.47056683
   0.84525969  0.61197612  0.37397556
   0.93275432  0.53634920  0.18936495
   0.67646813  0.77798441  0.18526733
   0.51612558  0.44267192  0.28403597
   0.76867373  0.44059421  0.28115644
   0.10331128  0.36087516  0.08875848
   0.67664845  0.53678078  0.46789449
   0.59323225  0.36184939  0.09391007
   0.09318741  0.36628427  0.37307319
   0.85527897  0.86524015  0.09348595
   0.84616275  0.12087861  0.37729441
   0.08483334  0.85768943  0.37418006
   0.27398666  0.20026881  0.28151863
   0.92896045  0.28644020  0.18882551
   0.60260239  0.86054373  0.09498618
   0.69143370  0.28899051  0.19150666
   0.01503023  0.69464704  0.27935475
   0.61089982  0.11862486  0.37562598
Direct configuration=     2
   0.44915326  0.04306611  0.18786188
   0.43956869  0.02961869  0.47028854
   0.17980369  0.28878219  0.47201540
   0.09605829  0.61427969  0.36947677
   0.93012553  0.77631551  0.47155375
   0.34614165  0.10786000  0.37348791
   0.35998808  0.87331294  0.09486589
   0.76228822  0.68341400  0.27684615
   0.18305632  0.29400085  0.18272713
   0.52183998  0.19823751  0.27891496
   0.35871727  0.60717005  0.09635633
   0.84661327  0.11568176  0.09147337
   0.92861252  0.52978289  0.46847972
   0.92573561  0.28097699  0.47006379
   0.61814480  0.37282097  0.37439684
   0.02303638  0.94471257  0.27979336
   0.10489312  0.12765290  0.37282771
   0.35295420  0.61718001  0.37378174
   0.92562986  0.02558538  0.18477826
   0.75602491  0.94769547  0.28248481
   0.18210748  0.02974855  0.47211997
   0.18649551  0.03625390  0.18392496
   0.84815887  0.86773821  0.37424235
   0.60514671  0.62242472  0.37450495
   0.84396037  0.36772675  0.09744167
   0.44624548  0.29809542  0.18769018
   0.43649786  0.54034389  0.47299493
   0.43935630  0.28549190  0.47164657
   0.01289101  0.20997384  0.28097137
   0.18035547  0.78159906  0.18988841
   0.09556519  0.61224082  0.09616877
   0.92233682  0.02930384  0.47177403
   0.51105749  0.94825490  0.28529999
   0.68550283  0.03563082  0.18596404
   0.76496208  0.20460279  0.28218728
   0.10309478  0.11603712  0.08880027
   0.36257453  0.37360408  0.37358661
   0.34975606  0.86257933  0.37426863
   0.35519268  0.12495710  0.09181458
   0.67946699  0.03145739  0.46644974
   0.18123390  0.53060609  0.46896406
   0.26477989  0.69731034  0.27946252
   0.26333864  0.94230027  0.28476564
   0.18402087  0.78292548  0.46612034
   0.44663017  0.54237686  0.18747580
   0.34800990  0.35872331  0.09273106
   0.68277460  0.28190500  0.46713026
   0.51329854  0.69577849  0.27954715
   0.84885460  0.62664638  0.09595015
   0.26922702  0.44878385  0.28085431
   0.01175724  0.45596193  0.27657113
   0.67998083  0.78194336  0.46771407
   0.60124623  0.87449769  0.37823350
   0.59908012  0.12469962  0.09177068
   0.85095779  0.36212249  0.37112040
   0.60889832  0.61477679  0.09423650
   0.92308742  0.76985008  0.18331721
   0.08347885  0.86606526  0.09423620
   0.43997944  0.78338190  0.18792949
   0.68799126  0.54184763  0.18203101
   0.18456641  0.53820270  0.18986537
   0.44649055  0.78693907  0.46888534
   0.85169675  0.61128378  0.37358173
   0.93275432  0.53634920  0.18936495
   0.67646813  0.77798441  0.18526733
   0.51223096  0.44827340  0.28233984
   0.77005763  0.44326479  0.28075997
   0.10331128  0.36087516  0.08875848
   0.68260429  0.53690118  0.46853770
   0.59323225  0.36184939  0.09391007
   0.09660125  0.36835445  0.37323134
   0.85527897  0.86524015  0.09348595
   0.84240942  0.11938348  0.37617515
   0.09348871  0.85905349  0.37468138
   0.26934395  0.20311647  0.28181037
   0.92896045  0.28644020  0.18882551
   0.60260239  0.86054373  0.09498618
   0.69143370  0.28899051  0.19150666
   0.01511753  0.69435218  0.27854892
   0.60931619  0.11471601  0.37581594
Direct configuration=     3
   0.44915326  0.04306611  0.18786188
   0.43982578  0.02847539  0.47044148
   0.17895193  0.28914911  0.47203487
   0.09658893  0.61460138  0.36967189
   0.93030728  0.77517399  0.47209900
   0.34431666  0.10581822  0.37363154
   0.35998808  0.87331294  0.09486589
   0.76183729  0.68327133  0.27648585
   0.18305632  0.29400085  0.18272713
   0.52282763  0.19754245  0.27826128
   0.35871727  0.60717005  0.09635633
   0.84661327  0.11568176  0.09147337
   0.92851812  0.52983361  0.46857694
   0.92584973  0.28197171  0.47010235
   0.61977126  0.37327537  0.37487416
   0.02347183  0.94504323  0.27958932
   0.10532459  0.12812351  0.37259347
   0.35231956  0.61767710  0.37344810
   0.92562986  0.02558538  0.18477826
   0.75475279  0.94752442  0.28228590
   0.18228765  0.02870561  0.47233366
   0.18649551  0.03625390  0.18392496
   0.84777589  0.86848452  0.37375700
   0.60402775  0.62249213  0.37436917
   0.84396037  0.36772675  0.09744167
   0.44624548  0.29809542  0.18769018
   0.43695443  0.54210968  0.47347495
   0.44043223  0.28476008  0.47223943
   0.01345120  0.21063187  0.28094331
   0.18035547  0.78159906  0.18988841
   0.09556519  0.61224082  0.09616877
   0.92224588  0.02920010  0.47232737
   0.51104293  0.94753532  0.28524102
   0.68550283  0.03563082  0.18596404
   0.76528675  0.20425945  0.28214258
   0.10309478  0.11603712  0.08880027
   0.36055353  0.37309423  0.37300269
   0.34989998  0.86262209  0.37432186
   0.35519268  0.12495710  0.09181458
   0.67889837  0.03088011  0.46639253
   0.18115806  0.53122454  0.46888320
   0.26532870  0.69715973  0.27952302
   0.26349128  0.94219691  0.28477293
   0.18439265  0.78270953  0.46598848
   0.44663017  0.54237686  0.18747580
   0.34800990  0.35872331  0.09273106
   0.68282363  0.28214013  0.46712756
   0.51284061  0.69574327  0.27940436
   0.84885460  0.62664638  0.09595015
   0.26954504  0.44891423  0.28077550
   0.01193230  0.45591230  0.27657058
   0.67915500  0.78200575  0.46779797
   0.60076507  0.87464434  0.37831899
   0.59908012  0.12469962  0.09177068
   0.85151922  0.36245292  0.37100483
   0.60889832  0.61477679  0.09423650
   0.92308742  0.76985008  0.18331721
   0.08347885  0.86606526  0.09423620
   0.43997944  0.78338190  0.18792949
   0.68799126  0.54184763  0.18203101
   0.18456641  0.53820270  0.18986537
   0.44629193  0.78736333  0.46861722
   0.85272317  0.61117339  0.37351894
   0.93275432  0.53634920  0.18936495
   0.67646813  0.77798441  0.18526733
   0.51160995  0.44916658  0.28206939
   0.77027830  0.44369063  0.28069675
   0.10331128  0.36087516  0.08875848
   0.68355398  0.53692038  0.46864026
   0.59323225  0.36184939  0.09391007
   0.09714560  0.36868455  0.37325655
   0.85527897  0.86524015  0.09348595
   0.84181094  0.11914507  0.37599668
   0.09486884  0.85927099  0.37476132
   0.26860365  0.20357055  0.28185689
   0.92896045  0.28644020  0.18882551
   0.60260239  0.86054373  0.09498618
   0.69143370  0.28899051  0.19150666
   0.01513145  0.69430517  0.27842042
   0.60906367  0.11409273  0.37584623
Direct configuration=     4
   0.44915326  0.04306611  0.18786188
   0.44062581  0.02387413  0.47119496
   0.18162548  0.29002988  0.47175343
   0.09873903  0.61592508  0.36979182
   0.92851492  0.77648898  0.47261206
   0.34724370  0.10547105  0.37254272
   0.35998808  0.87331294  0.09486589
   0.76055695  0.68449596  0.27597853
   0.18305632  0.29400085  0.18272713
   0.52332172  0.20029629  0.28179429
   0.35871727  0.60717005  0.09635633
   0.84661327  0.11568176  0.09147337
   0.92863636  0.52890232  0.46935796
   0.92402684  0.28185529  0.46982963
   0.61421158  0.36935116  0.37457574
   0.02292358  0.94469718  0.27907937
   0.10351244  0.12837113  0.37311973
   0.35016541  0.61919530  0.37232236
   0.92562986  0.02558538  0.18477826
   0.75095036  0.94776731  0.28062032
   0.18225097  0.02638753  0.47363707
   0.18649551  0.03625390  0.18392496
   0.84935254  0.87013108  0.37405757
   0.60137618  0.62073086  0.37407713
   0.84396037  0.36772675  0.09744167
   0.44624548  0.29809542  0.18769018
   0.43759466  0.54380245  0.47488417
   0.44097406  0.28550931  0.47387571
   0.01464270  0.21218166  0.28072594
   0.18035547  0.78159906  0.18988841
   0.09556519  0.61224082  0.09616877
   0.92210064  0.02773581  0.47414106
   0.50921587  0.94278567  0.28481509
   0.68550283  0.03563082  0.18596404
   0.76881340  0.20373766  0.28195912
   0.10309478  0.11603712  0.08880027
   0.35379556  0.36927076  0.37144170
   0.35097888  0.86263888  0.37432779
   0.35519268  0.12495710  0.09181458
   0.67884900  0.02896777  0.46630944
   0.18112074  0.53552693  0.46851620
   0.26768843  0.69661756  0.27941178
   0.26471361  0.94085321  0.28437282
   0.18686833  0.78030120  0.46563009
   0.44663017  0.54237686  0.18747580
   0.34800990  0.35872331  0.09273106
   0.68366122  0.28155506  0.46770126
   0.50986487  0.69545571  0.27818872
   0.84885460  0.62664638  0.09595015
   0.27178174  0.45052919  0.27990835
   0.01301575  0.45646744  0.27682791
   0.67782500  0.78327571  0.46787917
   0.59791019  0.87484822  0.37866282
   0.59908012  0.12469962  0.09177068
   0.85693112  0.36406850  0.37001588
   0.60889832  0.61477679  0.09423650
   0.92308742  0.76985008  0.18331721
   0.08347885  0.86606526  0.09423620
   0.43997944  0.78338190  0.18792949
   0.68799126  0.54184763  0.18203101
   0.18456641  0.53820270  0.18986537
   0.44474245  0.78975751  0.46699861
   0.85701977  0.61389835  0.37273725
   0.93275432  0.53634920  0.18936495
   0.67646813  0.77798441  0.18526733
   0.50842625  0.45010661  0.28168398
   0.77130456  0.44537963  0.28048943
   0.10331128  0.36087516  0.08875848
   0.68604173  0.53730793  0.46885511
   0.59323225  0.36184939  0.09391007
   0.10012728  0.37009260  0.37357624
   0.85527897  0.86524015  0.09348595
   0.84029974  0.11923094  0.37573363
   0.09792202  0.86029952  0.37531818
   0.26939268  0.20648703  0.28220475
   0.92896045  0.28644020  0.18882551
   0.60260239  0.86054373  0.09498618
   0.69143370  0.28899051  0.19150666
   0.01502292  0.69397529  0.27814175
   0.60566669  0.11113220  0.37560654
Direct configuration=     5
   0.44915326  0.04306611  0.18786188
   0.44076595  0.02306817  0.47132694
   0.18209378  0.29018415  0.47170413
   0.09911564  0.61615694  0.36981283
   0.92820097  0.77671932  0.47270193
   0.34775641  0.10541024  0.37235200
   0.35998808  0.87331294  0.09486589
   0.76033268  0.68471047  0.27588967
   0.18305632  0.29400085  0.18272713
   0.52340827  0.20077866  0.28241315
   0.35871727  0.60717005  0.09635633
   0.84661327  0.11568176  0.09147337
   0.92865707  0.52873919  0.46949477
   0.92370753  0.28183490  0.46978186
   0.61323773  0.36866379  0.37452347
   0.02282754  0.94463657  0.27899005
   0.10319502  0.12841451  0.37321191
   0.34978809  0.61946123  0.37212518
   0.92562986  0.02558538  0.18477826
   0.75028432  0.94780986  0.28032857
   0.18224454  0.02598149  0.47386538
   0.18649551  0.03625390  0.18392496
   0.84962871  0.87041949  0.37411022
   0.60091172  0.62042235  0.37402597
   0.84396037  0.36772675  0.09744167
   0.44624548  0.29809542  0.18769018
   0.43770681  0.54409896  0.47513102
   0.44106897  0.28564055  0.47416232
   0.01485141  0.21245312  0.28068786
   0.18035547  0.78159906  0.18988841
   0.09556519  0.61224082  0.09616877
   0.92207520  0.02747932  0.47445874
   0.50889584  0.94195371  0.28474048
   0.68550283  0.03563082  0.18596404
   0.76943113  0.20364626  0.28192698
   0.10309478  0.11603712  0.08880027
   0.35261182  0.36860103  0.37116827
   0.35116786  0.86264182  0.37432883
   0.35519268  0.12495710  0.09181458
   0.67884035  0.02863279  0.46629489
   0.18111420  0.53628055  0.46845192
   0.26810177  0.69652259  0.27939230
   0.26492772  0.94061785  0.28430274
   0.18730198  0.77987935  0.46556731
   0.44663017  0.54237686  0.18747580
   0.34800990  0.35872331  0.09273106
   0.68380794  0.28145258  0.46780175
   0.50934363  0.69540534  0.27797578
   0.84885460  0.62664638  0.09595015
   0.27217352  0.45081207  0.27975646
   0.01320553  0.45656468  0.27687299
   0.67759203  0.78349816  0.46789340
   0.59741012  0.87488393  0.37872305
   0.59908012  0.12469962  0.09177068
   0.85787908  0.36435149  0.36984265
   0.60889832  0.61477679  0.09423650
   0.92308742  0.76985008  0.18331721
   0.08347885  0.86606526  0.09423620
   0.43997944  0.78338190  0.18792949
   0.68799126  0.54184763  0.18203101
   0.18456641  0.53820270  0.18986537
   0.44447104  0.79017688  0.46671509
   0.85777237  0.61437566  0.37260033
   0.93275432  0.53634920  0.18936495
   0.67646813  0.77798441  0.18526733
   0.50786859  0.45027127  0.28161647
   0.77148432  0.44567548  0.28045311
   0.10331128  0.36087516  0.08875848
   0.68647749  0.53737582  0.46889274
   0.59323225  0.36184939  0.09391007
   0.10064956  0.37033924  0.37363223
   0.85527897  0.86524015  0.09348595
   0.84003504  0.11924598  0.37568756
   0.09845683  0.86047968  0.37541572
   0.26953089  0.20699789  0.28226568
   0.92896045  0.28644020  0.18882551
   0.60260239  0.86054373  0.09498618
   0.69143370  0.28899051  0.19150666
   0.01500391  0.69391751  0.27809294
   0.60507166  0.11061362  0.37556455
Direct configuration=     6
   0.44915326  0.04306611  0.18786188
   0.44009206  0.02414331  0.47170529
   0.18401527  0.29100414  0.47145458
   0.09893636  0.61702019  0.36945873
   0.92694740  0.77686575  0.47236238
   0.34779045  0.10627555  0.37330500
   0.35998808  0.87331294  0.09486589
   0.75935800  0.68580853  0.27647209
   0.18305632  0.29400085  0.18272713
   0.52403303  0.20096646  0.28211294
   0.35871727  0.60717005  0.09635633
   0.84661327  0.11568176  0.09147337
   0.92856602  0.53063296  0.46968030
   0.92428339  0.27867080  0.46940042
   0.61220592  0.36939048  0.37491069
   0.02249802  0.94439172  0.27936921
   0.10154485  0.12629566  0.37403383
   0.35119497  0.61892508  0.37199654
   0.92562986  0.02558538  0.18477826
   0.75044694  0.94752150  0.28001621
   0.18362381  0.02602465  0.47446230
   0.18649551  0.03625390  0.18392496
   0.84913282  0.87001220  0.37458725
   0.60043521  0.61933225  0.37411615
   0.84396037  0.36772675  0.09744167
   0.44624548  0.29809542  0.18769018
   0.43766933  0.54419211  0.47528994
   0.44059272  0.28592112  0.47465839
   0.01581295  0.21235822  0.28066713
   0.18035547  0.78159906  0.18988841
   0.09556519  0.61224082  0.09616877
   0.92258715  0.02842167  0.47535926
   0.50645708  0.93998301  0.28420125
   0.68550283  0.03563082  0.18596404
   0.77028414  0.20459982  0.28167632
   0.10309478  0.11603712  0.08880027
   0.34978635  0.36692782  0.37089307
   0.35178282  0.86298193  0.37404588
   0.35519268  0.12495710  0.09181458
   0.68050155  0.02796285  0.46636473
   0.18181424  0.53780926  0.46833116
   0.26854104  0.69622024  0.27875076
   0.26506141  0.93931219  0.28378715
   0.18822446  0.77843368  0.46555452
   0.44663017  0.54237686  0.18747580
   0.34800990  0.35872331  0.09273106
   0.68319302  0.28028834  0.46805913
   0.50775461  0.69508991  0.27704635
   0.84885460  0.62664638  0.09595015
   0.27354837  0.45244759  0.27879607
   0.01412197  0.45734037  0.27705883
   0.67754153  0.78444225  0.46764661
   0.59661477  0.87437427  0.37856061
   0.59908012  0.12469962  0.09177068
   0.86021012  0.36507337  0.36902024
   0.60889832  0.61477679  0.09423650
   0.92308742  0.76985008  0.18331721
   0.08347885  0.86606526  0.09423620
   0.43997944  0.78338190  0.18792949
   0.68799126  0.54184763  0.18203101
   0.18456641  0.53820270  0.18986537
   0.44315847  0.78907758  0.46561377
   0.85787986  0.61526987  0.37195138
   0.93275432  0.53634920  0.18936495
   0.67646813  0.77798441  0.18526733
   0.50597341  0.45036449  0.28159357
   0.77198804  0.44656123  0.28076476
   0.10331128  0.36087516  0.08875848
   0.68630435  0.53732714  0.46878745
   0.59323225  0.36184939  0.09391007
   0.10238331  0.37121987  0.37400275
   0.85527897  0.86524015  0.09348595
   0.83980888  0.11987013  0.37576336
   0.09911414  0.86163955  0.37572632
   0.27057723  0.20807510  0.28237356
   0.92896045  0.28644020  0.18882551
   0.60260239  0.86054373  0.09498618
   0.69143370  0.28899051  0.19150666
   0.01480032  0.69373526  0.27818767
   0.60328916  0.10906058  0.37556873
Direct configuration=     7
   0.44915326  0.04306611  0.18786188
   0.43984054  0.02454459  0.47184651
   0.18473244  0.29131019  0.47136144
   0.09886945  0.61734238  0.36932657
   0.92647952  0.77692040  0.47223564
   0.34780316  0.10659851  0.37366069
   0.35998808  0.87331294  0.09486589
   0.75899421  0.68621836  0.27668947
   0.18305632  0.29400085  0.18272713
   0.52426622  0.20103655  0.28200089
   0.35871727  0.60717005  0.09635633
   0.84661327  0.11568176  0.09147337
   0.92853204  0.53133979  0.46974955
   0.92449832  0.27748984  0.46925805
   0.61182081  0.36966170  0.37505521
   0.02237503  0.94430033  0.27951072
   0.10092894  0.12550483  0.37434060
   0.35172008  0.61872496  0.37194853
   0.92562986  0.02558538  0.18477826
   0.75050763  0.94741388  0.27989962
   0.18413861  0.02604076  0.47468509
   0.18649551  0.03625390  0.18392496
   0.84894774  0.86986019  0.37476529
   0.60025736  0.61892538  0.37414981
   0.84396037  0.36772675  0.09744167
   0.44624548  0.29809542  0.18769018
   0.43765534  0.54422687  0.47534926
   0.44041497  0.28602584  0.47484354
   0.01617183  0.21232280  0.28065940
   0.18035547  0.78159906  0.18988841
   0.09556519  0.61224082  0.09616877
   0.92277823  0.02877339  0.47569537
   0.50554685  0.93924747  0.28399999
   0.68550283  0.03563082  0.18596404
   0.77060251  0.20495572  0.28158276
   0.10309478  0.11603712  0.08880027
   0.34873178  0.36630331  0.37079036
   0.35201235  0.86310887  0.37394027
   0.35519268  0.12495710  0.09181458
   0.68112157  0.02771281  0.46639079
   0.18207553  0.53837983  0.46828609
   0.26870500  0.69610738  0.27851131
   0.26511131  0.93882486  0.28359472
   0.18856876  0.77789410  0.46554974
   0.44663017  0.54237686  0.18747580
   0.34800990  0.35872331  0.09273106
   0.68296352  0.27985380  0.46815520
   0.50716153  0.69497218  0.27669945
   0.84885460  0.62664638  0.09595015
   0.27406151  0.45305803  0.27843762
   0.01446402  0.45762988  0.27712819
   0.67752268  0.78479462  0.46755450
   0.59631792  0.87418404  0.37849998
   0.59908012  0.12469962  0.09177068
   0.86108015  0.36534280  0.36871329
   0.60889832  0.61477679  0.09423650
   0.92308742  0.76985008  0.18331721
   0.08347885  0.86606526  0.09423620
   0.43997944  0.78338190  0.18792949
   0.68799126  0.54184763  0.18203101
   0.18456641  0.53820270  0.18986537
   0.44266857  0.78866727  0.46520272
   0.85791997  0.61560363  0.37170917
   0.93275432  0.53634920  0.18936495
   0.67646813  0.77798441  0.18526733
   0.50526606  0.45039929  0.28158503
   0.77217604  0.44689183  0.28088108
   0.10331128  0.36087516  0.08875848
   0.68623973  0.53730898  0.46874815
   0.59323225  0.36184939  0.09391007
   0.10303041  0.37154855  0.37414103
   0.85527897  0.86524015  0.09348595
   0.83972447  0.12010309  0.37579165
   0.09935947  0.86207245  0.37584225
   0.27096776  0.20847715  0.28241383
   0.92896045  0.28644020  0.18882551
   0.60260239  0.86054373  0.09498618
   0.69143370  0.28899051  0.19150666
   0.01472433  0.69366724  0.27822303
   0.60262387  0.10848092  0.37557028
Direct configuration=     8
   0.44915326  0.04306611  0.18786188
   0.44091856  0.02522393  0.47218107
   0.18592340  0.29198297  0.47126793
   0.09969943  0.61803048  0.36906564
   0.92649519  0.77801366  0.47194490
   0.34752387  0.10732852  0.37392062
   0.35998808  0.87331294  0.09486589
   0.75807558  0.68632696  0.27705588
   0.18305632  0.29400085  0.18272713
   0.52443248  0.20067732  0.28179290
   0.35871727  0.60717005  0.09635633
   0.84661327  0.11568176  0.09147337
   0.92845622  0.52930788  0.46945574
   0.92531942  0.27971613  0.46884951
   0.61271976  0.36996141  0.37526463
   0.02286472  0.94442133  0.27995081
   0.09931606  0.12335711  0.37486774
   0.35194649  0.61795517  0.37170417
   0.92562986  0.02558538  0.18477826
   0.75086080  0.94756026  0.28019496
   0.18418427  0.02578552  0.47537064
   0.18649551  0.03625390  0.18392496
   0.84714315  0.86910579  0.37518190
   0.60019443  0.61857903  0.37438628
   0.84396037  0.36772675  0.09744167
   0.44624548  0.29809542  0.18769018
   0.43808241  0.54457153  0.47526003
   0.44078640  0.28677419  0.47526389
   0.01734835  0.21228477  0.28098920
   0.18035547  0.78159906  0.18988841
   0.09556519  0.61224082  0.09616877
   0.92417029  0.02825575  0.47649292
   0.50418042  0.93844149  0.28343736
   0.68550283  0.03563082  0.18596404
   0.77106872  0.20598279  0.28131532
   0.10309478  0.11603712  0.08880027
   0.34715698  0.36536759  0.37081250
   0.35219920  0.86346753  0.37354308
   0.35519268  0.12495710  0.09181458
   0.68076356  0.02688978  0.46642728
   0.18255989  0.53841157  0.46817177
   0.26813268  0.69548749  0.27798514
   0.26492729  0.93859901  0.28357462
   0.18890229  0.77762802  0.46559758
   0.44663017  0.54237686  0.18747580
   0.34800990  0.35872331  0.09273106
   0.68304791  0.27905297  0.46822829
   0.50662007  0.69494528  0.27605925
   0.84885460  0.62664638  0.09595015
   0.27457592  0.45446837  0.27745546
   0.01539524  0.45809134  0.27714683
   0.67747644  0.78538084  0.46719352
   0.59657271  0.87386292  0.37808708
   0.59908012  0.12469962  0.09177068
   0.86172701  0.36556198  0.36817178
   0.60889832  0.61477679  0.09423650
   0.92308742  0.76985008  0.18331721
   0.08347885  0.86606526  0.09423620
   0.43997944  0.78338190  0.18792949
   0.68799126  0.54184763  0.18203101
   0.18456641  0.53820270  0.18986537
   0.44164066  0.78811718  0.46435508
   0.85714376  0.61591536  0.37116671
   0.93275432  0.53634920  0.18936495
   0.67646813  0.77798441  0.18526733
   0.50410253  0.45020283  0.28164357
   0.77241879  0.44768790  0.28138033
   0.10331128  0.36087516  0.08875848
   0.68501436  0.53697008  0.46864550
   0.59323225  0.36184939  0.09391007
   0.10404236  0.37206580  0.37442926
   0.85527897  0.86524015  0.09348595
   0.83963851  0.12067677  0.37570786
   0.09948669  0.86315849  0.37608533
   0.27153553  0.20822573  0.28269260
   0.92896045  0.28644020  0.18882551
   0.60260239  0.86054373  0.09498618
   0.69143370  0.28899051  0.19150666
   0.01412891  0.69366343  0.27825153
   0.60158987  0.10788920  0.37560729
Direct configuration=     9
   0.44915326  0.04306611  0.18786188
   0.44114826  0.02536868  0.47225236
   0.18617716  0.29212632  0.47124800
   0.09987627  0.61817709  0.36901004
   0.92649852  0.77824660  0.47188296
   0.34746436  0.10748406  0.37397600
   0.35998808  0.87331294  0.09486589
   0.75787985  0.68635010  0.27713395
   0.18305632  0.29400085  0.18272713
   0.52446790  0.20060078  0.28174858
   0.35871727  0.60717005  0.09635633
   0.84661327  0.11568176  0.09147337
   0.92844007  0.52887494  0.46939313
   0.92549437  0.28019048  0.46876246
   0.61291130  0.37002526  0.37530925
   0.02296906  0.94444711  0.28004458
   0.09897241  0.12289950  0.37498005
   0.35199473  0.61779115  0.37165210
   0.92562986  0.02558538  0.18477826
   0.75093605  0.94759145  0.28025789
   0.18419400  0.02573114  0.47551671
   0.18649551  0.03625390  0.18392496
   0.84675864  0.86894505  0.37527067
   0.60018102  0.61850524  0.37443667
   0.84396037  0.36772675  0.09744167
   0.44624548  0.29809542  0.18769018
   0.43817341  0.54464497  0.47524102
   0.44086554  0.28693364  0.47535345
   0.01759904  0.21227666  0.28105948
   0.18035547  0.78159906  0.18988841
   0.09556519  0.61224082  0.09616877
   0.92446690  0.02814545  0.47666286
   0.50388928  0.93826976  0.28331748
   0.68550283  0.03563082  0.18596404
   0.77116806  0.20620163  0.28125833
   0.10309478  0.11603712  0.08880027
   0.34682143  0.36516822  0.37081722
   0.35223901  0.86354395  0.37345845
   0.35519268  0.12495710  0.09181458
   0.68068728  0.02671442  0.46643505
   0.18266310  0.53841833  0.46814741
   0.26801073  0.69535540  0.27787303
   0.26488808  0.93855088  0.28357033
   0.18897336  0.77757133  0.46560777
   0.44663017  0.54237686  0.18747580
   0.34800990  0.35872331  0.09273106
   0.68306589  0.27888233  0.46824387
   0.50650470  0.69493955  0.27592284
   0.84885460  0.62664638  0.09595015
   0.27468552  0.45476887  0.27724620
   0.01559365  0.45818966  0.27715080
   0.67746659  0.78550575  0.46711661
   0.59662700  0.87379450  0.37799910
   0.59908012  0.12469962  0.09177068
   0.86186484  0.36560868  0.36805640
   0.60889832  0.61477679  0.09423650
   0.92308742  0.76985008  0.18331721
   0.08347885  0.86606526  0.09423620
   0.43997944  0.78338190  0.18792949
   0.68799126  0.54184763  0.18203101
   0.18456641  0.53820270  0.18986537
   0.44142164  0.78799997  0.46417448
   0.85697837  0.61598178  0.37105113
   0.93275432  0.53634920  0.18936495
   0.67646813  0.77798441  0.18526733
   0.50385461  0.45016097  0.28165605
   0.77247052  0.44785752  0.28148671
   0.10331128  0.36087516  0.08875848
   0.68475327  0.53689787  0.46862363
   0.59323225  0.36184939  0.09391007
   0.10425798  0.37217601  0.37449067
   0.85527897  0.86524015  0.09348595
   0.83962019  0.12079900  0.37569001
   0.09951379  0.86338990  0.37613712
   0.27165651  0.20817215  0.28275200
   0.92896045  0.28644020  0.18882551
   0.60260239  0.86054373  0.09498618
   0.69143370  0.28899051  0.19150666
   0.01400204  0.69366261  0.27825760
   0.60136956  0.10776312  0.37561518
Direct configuration=    10
   0.44915326  0.04306611  0.18786188
   0.44204562  0.02541457  0.47239814
   0.18614465  0.29225312  0.47127541
   0.10053682  0.61893849  0.36888044
   0.92685658  0.77638760  0.47175583
   0.34766743  0.10798346  0.37395933
   0.35998808  0.87331294  0.09486589
   0.75724855  0.68615581  0.27706903
   0.18305632  0.29400085  0.18272713
   0.52444661  0.20053035  0.28208439
   0.35871727  0.60717005  0.09635633
   0.84661327  0.11568176  0.09147337
   0.92804662  0.52941431  0.46873394
   0.92661820  0.28066748  0.46845351
   0.61372976  0.36922552  0.37532520
   0.02312859  0.94443777  0.28026629
   0.09759412  0.12165682  0.37543091
   0.35153126  0.61742189  0.37113974
   0.92562986  0.02558538  0.18477826
   0.75114121  0.94838535  0.28060866
   0.18460666  0.02574089  0.47623044
   0.18649551  0.03625390  0.18392496
   0.84506014  0.86859327  0.37549723
   0.59956516  0.61780786  0.37458572
   0.84396037  0.36772675  0.09744167
   0.44624548  0.29809542  0.18769018
   0.43868226  0.54542740  0.47512080
   0.44170886  0.28729370  0.47570507
   0.01860913  0.21260999  0.28146305
   0.18035547  0.78159906  0.18988841
   0.09556519  0.61224082  0.09616877
   0.92540127  0.02933143  0.47732842
   0.50368110  0.93805806  0.28283193
   0.68550283  0.03563082  0.18596404
   0.77191860  0.20692466  0.28097928
   0.10309478  0.11603712  0.08880027
   0.34605937  0.36464514  0.37089919
   0.35220814  0.86386337  0.37307949
   0.35519268  0.12495710  0.09181458
   0.68051719  0.02634560  0.46636097
   0.18323047  0.53797663  0.46801670
   0.26713637  0.69481722  0.27759258
   0.26462328  0.93896729  0.28383077
   0.18889227  0.77788886  0.46561207
   0.44663017  0.54237686  0.18747580
   0.34800990  0.35872331  0.09273106
   0.68318931  0.27841922  0.46824214
   0.50672247  0.69525830  0.27566980
   0.84885460  0.62664638  0.09595015
   0.27451919  0.45565780  0.27640856
   0.01628324  0.45824921  0.27703352
   0.67731987  0.78586065  0.46682426
   0.59694688  0.87377568  0.37751956
   0.59908012  0.12469962  0.09177068
   0.86192761  0.36572095  0.36764113
   0.60889832  0.61477679  0.09423650