       N       E                     dE             d eps       ncg     rms          rms(c)
DAV:   1     0.676068966820E+04    0.67607E+04   -0.31567E+05  2096   0.145E+03
DAV:   2     0.388331861654E+03   -0.63724E+04   -0.58202E+04  2096   0.355E+02
DAV:   3    -0.475723458446E+03   -0.86406E+03   -0.70765E+03  2268   0.155E+02
DAV:   4    -0.546364459694E+03   -0.70641E+02   -0.66795E+02  2336   0.459E+01
DAV:   5    -0.548181871582E+03   -0.18174E+01   -0.18097E+01  2400   0.765E+00    0.101E+02
RMM:   6    -0.702268651826E+03   -0.15409E+03   -0.89695E+02  2098   0.703E+01    0.181E+02
RMM:   7    -0.549779382662E+03    0.15249E+03   -0.23656E+02  2099   0.329E+01    0.115E+02
RMM:   8    -0.701934406371E+03   -0.15216E+03   -0.11629E+02  2099   0.219E+01    0.182E+02
RMM:   9    -0.631784149492E+03    0.70150E+02   -0.12911E+02  2102   0.234E+01    0.159E+02
RMM:  10    -0.495983836278E+03    0.13580E+03   -0.11579E+02  2109   0.236E+01    0.100E+02
RMM:  11    -0.484321488484E+03    0.11662E+02   -0.10254E+02  2102   0.219E+01    0.115E+02
RMM:  12    -0.499125415139E+03   -0.14804E+02   -0.98008E+01  2103   0.221E+01    0.121E+02
RMM:  13    -0.455261814877E+03    0.43864E+02   -0.57213E+01  2102   0.174E+01    0.741E+01
RMM:  14    -0.442304311455E+03    0.12958E+02   -0.19036E+01  2102   0.939E+00    0.593E+01
RMM:  15    -0.442144826977E+03    0.15948E+00   -0.13826E+01  2103   0.783E+00    0.600E+01
RMM:  16    -0.441496929122E+03    0.64790E+00   -0.10446E+01  2101   0.695E+00    0.472E+01
RMM:  17    -0.443960282244E+03   -0.24634E+01   -0.64680E+00  2103   0.541E+00    0.402E+01
RMM:  18    -0.447707526010E+03   -0.37472E+01   -0.56419E+00  2103   0.481E+00    0.334E+01
RMM:  19    -0.451942377849E+03   -0.42349E+01   -0.38308E+00  2101   0.387E+00    0.331E+01
RMM:  20    -0.459496006377E+03   -0.75536E+01   -0.45045E+00  2103   0.406E+00    0.308E+01
RMM:  21    -0.462166012740E+03   -0.26700E+01   -0.27291E+00  2101   0.316E+00    0.241E+01
RMM:  22    -0.471302482808E+03   -0.91365E+01   -0.58158E+00  2100   0.455E+00    0.301E+01
RMM:  23    -0.476777837794E+03   -0.54754E+01   -0.63138E+00  2101   0.458E+00    0.251E+01
RMM:  24    -0.480860007600E+03   -0.40822E+01   -0.50910E+00  2100   0.413E+00    0.245E+01
RMM:  25    -0.482927302776E+03   -0.20673E+01   -0.29116E+00  2102   0.308E+00    0.186E+01
RMM:  26    -0.483892621840E+03   -0.96532E+00   -0.10151E+00  2100   0.195E+00    0.159E+01
RMM:  27    -0.485294628971E+03   -0.14020E+01   -0.71831E-01  2100   0.154E+00    0.164E+01
RMM:  28    -0.486418211615E+03   -0.11236E+01   -0.74479E-01  2100   0.160E+00    0.152E+01
RMM:  29    -0.488121062589E+03   -0.17029E+01   -0.97327E-01  2098   0.157E+00    0.124E+01
RMM:  30    -0.489246229553E+03   -0.11252E+01   -0.68694E-01  2100   0.145E+00    0.107E+01
RMM:  31    -0.490506292920E+03   -0.12601E+01   -0.61764E-01  2099   0.121E+00    0.988E+00
RMM:  32    -0.490965340654E+03   -0.45905E+00   -0.23768E-01  2100   0.838E-01    0.878E+00
RMM:  33    -0.491287069064E+03   -0.32173E+00   -0.10588E-01  2100   0.518E-01    0.830E+00
RMM:  34    -0.491747528549E+03   -0.46046E+00   -0.17104E-01  2099   0.673E-01    0.842E+00
RMM:  35    -0.492494143726E+03   -0.74662E+00   -0.39384E-01  2099   0.935E-01    0.811E+00
RMM:  36    -0.492861845073E+03   -0.36770E+00   -0.26910E-01  2099   0.869E-01    0.543E+00
RMM:  37    -0.493251743010E+03   -0.38990E+00   -0.13994E-01  2099   0.635E-01    0.553E+00
RMM:  38    -0.493414479629E+03   -0.16274E+00   -0.71761E-02  2100   0.491E-01    0.435E+00
RMM:  39    -0.493603938868E+03   -0.18946E+00   -0.49551E-02  2100   0.399E-01    0.460E+00
RMM:  40    -0.493797490937E+03   -0.19355E+00   -0.64883E-02  2099   0.444E-01    0.405E+00
RMM:  41    -0.493904400460E+03   -0.10691E+00   -0.45416E-02  2100   0.387E-01    0.379E+00
RMM:  42    -0.493945399204E+03   -0.40999E-01   -0.37901E-02  2100   0.355E-01    0.265E+00
RMM:  43    -0.493957838440E+03   -0.12439E-01   -0.26495E-02  2100   0.315E-01    0.256E+00
RMM:  44    -0.493949272089E+03    0.85664E-02   -0.15224E-02  2100   0.241E-01    0.193E+00
RMM:  45    -0.493956725995E+03   -0.74539E-02   -0.12549E-02  2100   0.219E-01    0.215E+00
RMM:  46    -0.493956013021E+03    0.71297E-03   -0.85335E-03  2100   0.175E-01    0.134E+00
RMM:  47    -0.493980958036E+03   -0.24945E-01   -0.85891E-03  2100   0.174E-01    0.140E+00
RMM:  48    -0.494009261858E+03   -0.28304E-01   -0.85401E-03  2100   0.170E-01    0.101E+00
RMM:  49    -0.494027437459E+03   -0.18176E-01   -0.47908E-03  2100   0.131E-01    0.110E+00
RMM:  50    -0.494044347724E+03   -0.16910E-01   -0.36523E-03  2100   0.114E-01    0.836E-01
RMM:  51    -0.494082969179E+03   -0.38621E-01   -0.49310E-03  2100   0.129E-01    0.941E-01
RMM:  52    -0.494106022502E+03   -0.23053E-01   -0.37022E-03  2100   0.107E-01    0.610E-01
RMM:  53    -0.494123945348E+03   -0.17923E-01   -0.19627E-03  2100   0.798E-02    0.606E-01
RMM:  54    -0.494145975043E+03   -0.22030E-01   -0.14422E-03  2100   0.661E-02    0.449E-01
RMM:  55    -0.494176417095E+03   -0.30442E-01   -0.13726E-03  2100   0.641E-02    0.449E-01
RMM:  56    -0.494204761648E+03   -0.28345E-01   -0.17183E-03  2100   0.779E-02    0.523E-01
RMM:  57    -0.494226491041E+03   -0.21729E-01   -0.73550E-04  2100   0.503E-02    0.216E-01
RMM:  58    -0.494246366212E+03   -0.19875E-01   -0.48752E-04  2100   0.383E-02    0.263E-01
RMM:  59    -0.494271184411E+03   -0.24818E-01   -0.47820E-04  2100   0.330E-02    0.214E-01
RMM:  60    -0.494294630081E+03   -0.23446E-01   -0.35331E-04  2100   0.275E-02    0.207E-01
RMM:  61    -0.494279127797E+03    0.15502E-01   -0.28940E-04  2100   0.332E-02    0.208E-01
RMM:  62    -0.494328699456E+03   -0.49572E-01   -0.74957E-04  2100   0.332E-02    0.214E-01
RMM:  63    -0.494360357277E+03   -0.31658E-01   -0.52814E-04  2100   0.307E-02    0.223E-01
RMM:  64    -0.494404325395E+03   -0.43968E-01   -0.85441E-04  2100   0.307E-02    0.161E-01
RMM:  65    -0.494428194661E+03   -0.23869E-01   -0.48503E-04  2100   0.267E-02    0.174E-01
RMM:  66    -0.494438059507E+03   -0.98648E-02   -0.27372E-04  2100   0.249E-02    0.176E-01
RMM:  67    -0.494460961765E+03   -0.22902E-01   -0.67854E-04  2100   0.278E-02    0.151E-01
RMM:  68    -0.494468353839E+03   -0.73921E-02   -0.29223E-04  2100   0.209E-02    0.119E-01
RMM:  69    -0.494472836793E+03   -0.44830E-02   -0.18044E-04  2098   0.158E-02    0.781E-02
RMM:  70    -0.494475375402E+03   -0.25386E-02   -0.98368E-05  2098   0.125E-02    0.651E-02
RMM:  71    -0.494475746676E+03   -0.37127E-03   -0.70296E-05  2096   0.162E-02    0.121E-01
RMM:  72    -0.494476642396E+03   -0.89572E-03   -0.93905E-05  2097   0.141E-02    0.439E-02
RMM:  73    -0.494476629857E+03    0.12539E-04   -0.25461E-05  1981   0.722E-03    0.376E-02
RMM:  74    -0.494476303931E+03    0.32593E-03   -0.20862E-05  1900   0.561E-03    0.302E-02
RMM:  75    -0.494476000239E+03    0.30369E-03   -0.74886E-06  1777   0.458E-03    0.197E-02
RMM:  76    -0.494475922270E+03    0.77968E-04   -0.56542E-06  1786   0.470E-03    0.262E-02
RMM:  77    -0.494476066893E+03   -0.14462E-03   -0.29882E-06  1542   0.399E-03    0.161E-02
RMM:  78    -0.494476240948E+03   -0.17405E-03   -0.17243E-06  1333   0.269E-03    0.149E-02
RMM:  79    -0.494476417289E+03   -0.17634E-03   -0.13046E-06  1253   0.243E-03    0.125E-02
RMM:  80    -0.494476605313E+03   -0.18802E-03   -0.13502E-06  1334   0.209E-03    0.100E-02
RMM:  81    -0.494476741021E+03   -0.13571E-03   -0.10606E-06  1237   0.218E-03    0.134E-02
RMM:  82    -0.494476983686E+03   -0.24267E-03   -0.13476E-06  1327   0.211E-03    0.838E-03
RMM:  83    -0.494477182188E+03   -0.19850E-03   -0.11037E-06  1272   0.164E-03    0.736E-03
RMM:  84    -0.494477348885E+03   -0.16670E-03   -0.12102E-06  1340   0.152E-03    0.797E-03
RMM:  85    -0.494477437194E+03   -0.88309E-04   -0.85384E-07  1281   0.138E-03    0.457E-03
RMM:  86    -0.494477447103E+03   -0.99091E-05   -0.44063E-07  1216   0.128E-03    0.800E-03
RMM:  87    -0.494477586823E+03   -0.13972E-03   -0.99458E-07  1278   0.132E-03    0.434E-03
RMM:  88    -0.494477643376E+03   -0.56554E-04   -0.45802E-07  1162   0.859E-04    0.319E-03
RMM:  89    -0.494477691514E+03   -0.48138E-04   -0.36156E-07  1147   0.791E-04    0.293E-03
RMM:  90    -0.494477715096E+03   -0.23581E-04   -0.20633E-07  1089   0.638E-04    0.202E-03
RMM:  91    -0.494477747258E+03   -0.32163E-04   -0.24516E-07  1072   0.576E-04    0.245E-03
RMM:  92    -0.494477768625E+03   -0.21367E-04   -0.15465E-07  1008   0.539E-04    0.185E-03
RMM:  93    -0.494477784762E+03   -0.16137E-04   -0.14811E-07   958   0.472E-04    0.134E-03
RMM:  94    -0.494477800164E+03   -0.15402E-04   -0.13684E-07   916   0.416E-04    0.129E-03
RMM:  95    -0.494477812495E+03   -0.12332E-04   -0.10705E-07   947   0.413E-04    0.116E-03
RMM:  96    -0.494477814056E+03   -0.15607E-05   -0.47364E-08   859   0.368E-04    0.127E-03
RMM:  97    -0.494477821532E+03   -0.74761E-05   -0.49731E-08   734   0.325E-04    0.736E-04
RMM:  98    -0.494477826206E+03   -0.46735E-05   -0.51853E-08   672   0.308E-04    0.653E-04
RMM:  99    -0.494477827855E+03   -0.16497E-05   -0.24048E-08   599   0.291E-04    0.446E-04
RMM: 100    -0.494477829793E+03   -0.19378E-05   -0.31772E-08   585   0.283E-04    0.478E-04
RMM: 101    -0.494477830589E+03   -0.79584E-06   -0.11634E-08   479   0.270E-04
   1 F= -.52991444E+03 E0= -.52992396E+03  d E =-.529914E+03  mag=    87.6146
       N       E                     dE             d eps       ncg     rms          rms(c)
DAV:   1    -0.493513252348E+03    0.96458E+00   -0.12638E+03  2112   0.428E+01    0.130E+01
RMM:   2    -0.502469615722E+03   -0.89564E+01   -0.41918E+01  2100   0.155E+01    0.384E+01
RMM:   3    -0.499312241238E+03    0.31574E+01   -0.11407E+01  2217   0.673E+00    0.254E+01
RMM:   4    -0.498385324125E+03    0.92692E+00   -0.32353E+00  2128   0.343E+00    0.222E+01
RMM:   5    -0.497436074570E+03    0.94925E+00   -0.15050E+00  2100   0.248E+00    0.917E+00
RMM:   6    -0.497812542366E+03   -0.37647E+00   -0.71911E-01  2100   0.168E+00    0.143E+01
RMM:   7    -0.497316759151E+03    0.49578E+00   -0.46417E-01  2100   0.141E+00    0.733E+00
RMM:   8    -0.497427661228E+03   -0.11090E+00   -0.25938E-01  2102   0.104E+00    0.953E+00
RMM:   9    -0.497237817796E+03    0.18984E+00   -0.15963E-01  2100   0.791E-01    0.590E+00
RMM:  10    -0.497288443695E+03   -0.50626E-01   -0.26093E-01  2100   0.102E+00    0.692E+00
RMM:  11    -0.497200015925E+03    0.88428E-01   -0.21145E-01  2102   0.941E-01    0.513E+00
RMM:  12    -0.497137595003E+03    0.62421E-01   -0.10264E-01  2100   0.670E-01    0.306E+00
RMM:  13    -0.497136542176E+03    0.10528E-02   -0.44733E-02  2100   0.429E-01    0.280E+00
RMM:  14    -0.497117625152E+03    0.18917E-01   -0.22671E-02  2100   0.314E-01    0.147E+00
RMM:  15    -0.497112084223E+03    0.55409E-02   -0.90169E-03  2100   0.200E-01    0.871E-01
RMM:  16    -0.497113196966E+03   -0.11127E-02   -0.38430E-03  2100   0.123E-01    0.922E-01
RMM:  17    -0.497111632588E+03    0.15644E-02   -0.23093E-03  2100   0.987E-02    0.504E-01
RMM:  18    -0.497112054348E+03   -0.42176E-03   -0.11299E-03  2100   0.691E-02    0.474E-01
RMM:  19    -0.497112353965E+03   -0.29962E-03   -0.78036E-04  2102   0.558E-02    0.295E-01
RMM:  20    -0.497112765247E+03   -0.41128E-03   -0.50542E-04  2100   0.453E-02    0.305E-01
RMM:  21    -0.497113526870E+03   -0.76162E-03   -0.39740E-04  2101   0.396E-02    0.237E-01
RMM:  22    -0.497113939228E+03   -0.41236E-03   -0.18952E-04  2100   0.286E-02    0.160E-01
RMM:  23    -0.497114926104E+03   -0.98688E-03   -0.13514E-04  2100   0.229E-02    0.163E-01
RMM:  24    -0.497115727504E+03   -0.80140E-03   -0.10006E-04  2097   0.204E-02    0.102E-01
RMM:  25    -0.497117008328E+03   -0.12808E-02   -0.83987E-05  2099   0.175E-02    0.126E-01
RMM:  26    -0.497117891751E+03   -0.88342E-03   -0.58778E-05  2098   0.151E-02    0.799E-02
RMM:  27    -0.497119185015E+03   -0.12933E-02   -0.54171E-05  2098   0.136E-02    0.102E-01
RMM:  28    -0.497120356026E+03   -0.11710E-02   -0.41086E-05  2096   0.116E-02    0.734E-02
RMM:  29    -0.497121620100E+03   -0.12641E-02   -0.42230E-05  2097   0.113E-02    0.848E-02
RMM:  30    -0.497123256550E+03   -0.16364E-02   -0.53865E-05  2097   0.113E-02    0.636E-02
RMM:  31    -0.497124529698E+03   -0.12731E-02   -0.45448E-05  2096   0.106E-02    0.571E-02
RMM:  32    -0.497125930880E+03   -0.14012E-02   -0.52069E-05  2096   0.998E-03    0.499E-02
RMM:  33    -0.497126758875E+03   -0.82799E-03   -0.29539E-05  2095   0.819E-03    0.347E-02
RMM:  34    -0.497127774378E+03   -0.10155E-02   -0.35740E-05  2096   0.739E-03    0.386E-02
RMM:  35    -0.497128176803E+03   -0.40242E-03   -0.13270E-05  1912   0.555E-03    0.240E-02
RMM:  36    -0.497128570039E+03   -0.39324E-03   -0.11765E-05  1877   0.503E-03    0.302E-02
RMM:  37    -0.497128841666E+03   -0.27163E-03   -0.79351E-06  1771   0.425E-03    0.131E-02
RMM:  38    -0.497128974378E+03   -0.13271E-03   -0.34441E-06  1504   0.299E-03    0.171E-02
RMM:  39    -0.497129086151E+03   -0.11177E-03   -0.26831E-06  1419   0.278E-03    0.729E-03
RMM:  40    -0.497129136381E+03   -0.50230E-04   -0.11598E-06  1300   0.187E-03    0.101E-02
RMM:  41    -0.497129189714E+03   -0.53333E-04   -0.11005E-06  1323   0.180E-03    0.679E-03
RMM:  42    -0.497129213559E+03   -0.23845E-04   -0.51633E-07  1235   0.125E-03    0.723E-03
RMM:  43    -0.497129253935E+03   -0.40376E-04   -0.79314E-07  1310   0.122E-03    0.546E-03
RMM:  44    -0.497129271549E+03   -0.17614E-04   -0.39492E-07  1233   0.107E-03    0.523E-03
RMM:  45    -0.497129299526E+03   -0.27976E-04   -0.70753E-07  1302   0.101E-03    0.373E-03
RMM:  46    -0.497129311895E+03   -0.12369E-04   -0.35800E-07  1217   0.950E-04    0.424E-03
RMM:  47    -0.497129320345E+03   -0.84504E-05   -0.25400E-07  1201   0.919E-04    0.437E-03
RMM:  48    -0.497129332928E+03   -0.12583E-04   -0.49424E-07  1264   0.918E-04    0.430E-03
RMM:  49    -0.497129338916E+03   -0.59877E-05   -0.39498E-07  1207   0.855E-04    0.252E-03
RMM:  50    -0.497129342175E+03   -0.32585E-05   -0.13411E-07  1092   0.620E-04    0.302E-03
RMM:  51    -0.497129347212E+03   -0.50375E-05   -0.12320E-07  1045   0.541E-04    0.158E-03
RMM:  52    -0.497129346106E+03    0.11058E-05   -0.98145E-08  1076   0.530E-04    0.313E-03
RMM:  53    -0.497129352605E+03   -0.64984E-05   -0.71665E-08  1036   0.505E-04    0.775E-04
RMM:  54    -0.497129353399E+03   -0.79468E-06   -0.98204E-09   516   0.255E-04
   2 F= -.53250305E+03 E0= -.53251137E+03  d E =-.258861E+01  mag=    87.1344
       N       E                     dE             d eps       ncg     rms          rms(c)
DAV:   1    -0.497102336404E+03    0.27016E-01   -0.31338E+01  2128   0.650E+00    0.168E+00
RMM:   2    -0.497245769228E+03   -0.14343E+00   -0.56396E-01  2100   0.171E+00    0.524E+00
RMM:   3    -0.497227142301E+03    0.18627E-01   -0.17846E-01  2288   0.805E-01    0.461E+00
RMM:   4    -0.497245863048E+03   -0.18721E-01   -0.68245E-02  2103   0.505E-01    0.463E+00
RMM:   5    -0.497183120372E+03    0.62743E-01   -0.30841E-02  2100   0.367E-01    0.177E+00
RMM:   6    -0.497176749067E+03    0.63713E-02   -0.10701E-02  2101   0.205E-01    0.117E+00
RMM:   7    -0.497177261155E+03   -0.51209E-03   -0.71181E-03  2100   0.169E-01    0.119E+00
RMM:   8    -0.497173968400E+03    0.32928E-02   -0.59893E-03  2101   0.154E-01    0.671E-01
RMM:   9    -0.497173781932E+03    0.18647E-03   -0.44279E-03  2102   0.131E-01    0.743E-01
RMM:  10    -0.497174872259E+03   -0.10903E-02   -0.45395E-03  2102   0.131E-01    0.904E-01
RMM:  11    -0.497172970495E+03    0.19018E-02   -0.27175E-03  2102   0.106E-01    0.543E-01
RMM:  12    -0.497172150360E+03    0.82013E-03   -0.12298E-03  2100   0.723E-02    0.284E-01
RMM:  13    -0.497171930416E+03    0.21994E-03   -0.33027E-04  2100   0.373E-02    0.142E-01
RMM:  14    -0.497171872023E+03    0.58392E-04   -0.15014E-04  2100   0.242E-02    0.129E-01
RMM:  15    -0.497171814424E+03    0.57599E-04   -0.80199E-05  2098   0.181E-02    0.711E-02
RMM:  16    -0.497171802361E+03    0.12063E-04   -0.53957E-05  2100   0.137E-02    0.773E-02
RMM:  17    -0.497171779491E+03    0.22870E-04   -0.37574E-05  2101   0.114E-02    0.377E-02
RMM:  18    -0.497171787825E+03   -0.83338E-05   -0.21783E-05  2100   0.883E-03    0.556E-02
RMM:  19    -0.497171786394E+03    0.14311E-05   -0.13095E-05  2096   0.689E-03    0.317E-02
RMM:  20    -0.497171789384E+03   -0.29898E-05   -0.47368E-06  1750   0.443E-03    0.179E-02
RMM:  21    -0.497171800627E+03   -0.11243E-04   -0.23144E-06  1362   0.333E-03    0.181E-02
RMM:  22    -0.497171808749E+03   -0.81216E-05   -0.14549E-06  1200   0.296E-03    0.961E-03
RMM:  23    -0.497171821773E+03   -0.13024E-04   -0.66430E-07  1192   0.183E-03    0.965E-03
RMM:  24    -0.497171831099E+03   -0.93257E-05   -0.44235E-07  1178   0.157E-03    0.641E-03
RMM:  25    -0.497171845081E+03   -0.13982E-04   -0.28425E-07  1187   0.109E-03    0.780E-03
RMM:  26    -0.497171857929E+03   -0.12848E-04   -0.24066E-07  1184   0.109E-03    0.518E-03
RMM:  27    -0.497171875417E+03   -0.17488E-04   -0.23432E-07  1203   0.898E-04    0.603E-03
RMM:  28    -0.497171899907E+03   -0.24491E-04   -0.32696E-07  1224   0.103E-03    0.435E-03
RMM:  29    -0.497171920663E+03   -0.20756E-04   -0.30663E-07  1221   0.966E-04    0.504E-03
RMM:  30    -0.497171946269E+03   -0.25606E-04   -0.38291E-07  1241   0.953E-04    0.407E-03
RMM:  31    -0.497171958796E+03   -0.12527E-04   -0.20052E-07  1169   0.806E-04    0.350E-03
RMM:  32    -0.497171977017E+03   -0.18220E-04   -0.27947E-07  1215   0.736E-04    0.343E-03
RMM:  33    -0.497171986474E+03   -0.94575E-05   -0.15846E-07  1134   0.704E-04    0.225E-03
RMM:  34    -0.497171995915E+03   -0.94413E-05   -0.14955E-07  1123   0.552E-04    0.230E-03
RMM:  35    -0.497172000339E+03   -0.44233E-05   -0.76470E-08  1039   0.508E-04    0.143E-03
RMM:  36    -0.497172004235E+03   -0.38966E-05   -0.55655E-08   923   0.386E-04    0.168E-03
RMM:  37    -0.497172006427E+03   -0.21915E-05   -0.32496E-08   843   0.360E-04    0.739E-04
RMM:  38    -0.497172007770E+03   -0.13435E-05   -0.11461E-08   544   0.274E-04    0.992E-04
RMM:  39    -0.497172008629E+03   -0.85878E-06   -0.67247E-09   494   0.249E-04
   3 F= -.53254373E+03 E0= -.53255186E+03  d E =-.262929E+01  mag=    87.0985
       N       E                     dE             d eps       ncg     rms          rms(c)
DAV:   1    -0.497002508828E+03    0.16950E+00   -0.31147E+02  2096   0.215E+01    0.580E+00
RMM:   2    -0.498382553982E+03   -0.13800E+01   -0.65907E+00  2100   0.623E+00    0.141E+01
RMM:   3    -0.498289208864E+03    0.93345E-01   -0.20953E+00  2225   0.286E+00    0.125E+01
RMM:   4    -0.498106111185E+03    0.18310E+00   -0.61841E-01  2104   0.158E+00    0.102E+01
RMM:   5    -0.497843204359E+03    0.26291E+00   -0.23640E-01  2100   0.961E-01    0.452E+00
RMM:   6    -0.497842044832E+03    0.11595E-02   -0.91216E-02  2100   0.596E-01    0.453E+00
RMM:   7    -0.497820517698E+03    0.21527E-01   -0.53191E-02  2100   0.453E-01    0.395E+00
RMM:   8    -0.497784646439E+03    0.35871E-01   -0.37860E-02  2101   0.396E-01    0.219E+00
RMM:   9    -0.497777324952E+03    0.73215E-02   -0.33508E-02  2101   0.368E-01    0.187E+00
RMM:  10    -0.497786988232E+03   -0.96633E-02   -0.39893E-02  2101   0.393E-01    0.241E+00
RMM:  11    -0.497776159255E+03    0.10829E-01   -0.32190E-02  2104   0.361E-01    0.192E+00
RMM:  12    -0.497766312553E+03    0.98467E-02   -0.15447E-02  2100   0.258E-01    0.102E+00
RMM:  13    -0.497764650478E+03    0.16621E-02   -0.48102E-03  2101   0.142E-01    0.748E-01
RMM:  14    -0.497763502519E+03    0.11480E-02   -0.23964E-03  2100   0.101E-01    0.578E-01
RMM:  15    -0.497762448393E+03    0.10541E-02   -0.10083E-03  2100   0.676E-02    0.249E-01
RMM:  16    -0.497762360756E+03    0.87637E-04   -0.55465E-04  2100   0.467E-02    0.288E-01
RMM:  17    -0.497762151944E+03    0.20881E-03   -0.35096E-04  2100   0.369E-02    0.177E-01
RMM:  18    -0.497762170148E+03   -0.18204E-04   -0.24735E-04  2101   0.309E-02    0.169E-01
RMM:  19    -0.497762197853E+03   -0.27704E-04   -0.17675E-04  2104   0.250E-02    0.106E-01
RMM:  20    -0.497762274499E+03   -0.76646E-04   -0.86907E-05  2104   0.185E-02    0.844E-02
RMM:  21    -0.497762414934E+03   -0.14044E-03   -0.44133E-05  2100   0.132E-02    0.744E-02
RMM:  22    -0.497762510605E+03   -0.95670E-04   -0.20945E-05  2096   0.951E-03    0.397E-02
RMM:  23    -0.497762666825E+03   -0.15622E-03   -0.11332E-05  1997   0.672E-03    0.448E-02
RMM:  24    -0.497762812802E+03   -0.14598E-03   -0.72593E-06  1847   0.561E-03    0.314E-02
RMM:  25    -0.497762991067E+03   -0.17827E-03   -0.52192E-06  1769   0.458E-03    0.350E-02
RMM:  26    -0.497763176955E+03   -0.18589E-03   -0.38785E-06  1653   0.396E-03    0.246E-02
RMM:  27    -0.497763383550E+03   -0.20660E-03   -0.37767E-06  1638   0.371E-03    0.258E-02
RMM:  28    -0.497763709923E+03   -0.32637E-03   -0.52872E-06  1725   0.376E-03    0.220E-02
RMM:  29    -0.497764000148E+03   -0.29022E-03   -0.52883E-06  1743   0.381E-03    0.227E-02
RMM:  30    -0.497764427431E+03   -0.42728E-03   -0.86101E-06  1832   0.394E-03    0.202E-02
RMM:  31    -0.497764656910E+03   -0.22948E-03   -0.43621E-06  1608   0.328E-03    0.146E-02
RMM:  32    -0.497764945236E+03   -0.28833E-03   -0.59408E-06  1674   0.312E-03    0.153E-02
RMM:  33    -0.497765093831E+03   -0.14860E-03   -0.29069E-06  1449   0.270E-03    0.936E-03
RMM:  34    -0.497765276150E+03   -0.18232E-03   -0.44489E-06  1570   0.260E-03    0.130E-02
RMM:  35    -0.497765370257E+03   -0.94108E-04   -0.24732E-06  1412   0.232E-03    0.649E-03
RMM:  36    -0.497765431544E+03   -0.61287E-04   -0.18058E-06  1374   0.181E-03    0.915E-03
RMM:  37    -0.497765460432E+03   -0.28888E-04   -0.11020E-06  1318   0.171E-03    0.410E-03
RMM:  38    -0.497765470099E+03   -0.96673E-05   -0.54197E-07  1265   0.109E-03    0.500E-03
RMM:  39    -0.497765470826E+03   -0.72668E-06   -0.37983E-07  1226   0.973E-04
   4 F= -.53314909E+03 E0= -.53315746E+03  d E =-.605365E+00  mag=    87.0384
       N       E                     dE             d eps       ncg     rms          rms(c)
DAV:   1    -0.497753963169E+03    0.11507E-01   -0.95044E+00  2108   0.371E+00    0.947E-01
RMM:   2    -0.497789977961E+03   -0.36015E-01   -0.15098E-01  2100   0.909E-01    0.233E+00
RMM:   3    -0.497793771975E+03   -0.37940E-02   -0.52946E-02  2246   0.454E-01    0.261E+00
RMM:   4    -0.497793220239E+03    0.55174E-03   -0.20557E-02  2104   0.281E-01    0.240E+00
RMM:   5    -0.497777465356E+03    0.15755E-01   -0.86704E-03  2100   0.194E-01    0.819E-01
RMM:   6    -0.497776151329E+03    0.13140E-02   -0.20719E-03  2101   0.903E-02    0.532E-01
RMM:   7    -0.497776071792E+03    0.79537E-04   -0.12333E-03  2099   0.698E-02    0.510E-01
RMM:   8    -0.497775538345E+03    0.53345E-03   -0.11165E-03  2102   0.656E-02    0.356E-01
RMM:   9    -0.497775337142E+03    0.20120E-03   -0.11154E-03  2102   0.661E-02    0.325E-01
RMM:  10    -0.497775609104E+03   -0.27196E-03   -0.13123E-03  2104   0.693E-02    0.393E-01
RMM:  11    -0.497775173626E+03    0.43548E-03   -0.79400E-04  2101   0.577E-02    0.250E-01
RMM:  12    -0.497774973479E+03    0.20015E-03   -0.27898E-04  2100   0.347E-02    0.124E-01
RMM:  13    -0.497774938213E+03    0.35266E-04   -0.64204E-05  2099   0.163E-02    0.729E-02
RMM:  14    -0.497774934014E+03    0.41991E-05   -0.28877E-05  2096   0.105E-02    0.663E-02
RMM:  15    -0.497774921687E+03    0.12327E-04   -0.16739E-05  2096   0.818E-03    0.325E-02
RMM:  16    -0.497774927514E+03   -0.58277E-05   -0.15648E-05  2096   0.718E-03    0.388E-02
RMM:  17    -0.497774929757E+03   -0.22430E-05   -0.11314E-05  2100   0.603E-03    0.202E-02
RMM:  18    -0.497774938324E+03   -0.85662E-05   -0.56813E-06  1824   0.466E-03    0.272E-02
RMM:  19    -0.497774946918E+03   -0.85944E-05   -0.33127E-06  1537   0.393E-03    0.157E-02
RMM:  20    -0.497774951893E+03   -0.49748E-05   -0.14795E-06  1191   0.285E-03    0.906E-03
RMM:  21    -0.497774960038E+03   -0.81448E-05   -0.67596E-07  1181   0.189E-03    0.896E-03
RMM:  22    -0.497774965891E+03   -0.58534E-05   -0.37043E-07  1169   0.148E-03    0.514E-03
RMM:  23    -0.497774973786E+03   -0.78949E-05   -0.16980E-07  1175   0.891E-04    0.533E-03
RMM:  24    -0.497774981124E+03   -0.73382E-05   -0.12755E-07  1175   0.810E-04    0.376E-03
RMM:  25    -0.497774988415E+03   -0.72910E-05   -0.77552E-08  1082   0.570E-04    0.405E-03
RMM:  26    -0.497775000816E+03   -0.12401E-04   -0.10512E-07  1169   0.594E-04    0.331E-03
RMM:  27    -0.497775009958E+03   -0.91421E-05   -0.78731E-08  1091   0.535E-04    0.280E-03
RMM:  28    -0.497775025738E+03   -0.15780E-04   -0.13582E-07  1143   0.539E-04    0.251E-03
RMM:  29    -0.497775036611E+03   -0.10873E-04   -0.10686E-07  1125   0.548E-04    0.240E-03
RMM:  30    -0.497775051406E+03   -0.14795E-04   -0.16354E-07  1104   0.535E-04    0.263E-03
RMM:  31    -0.497775059912E+03   -0.85052E-05   -0.10507E-07  1072   0.513E-04    0.191E-03
RMM:  32    -0.497775067959E+03   -0.80472E-05   -0.10765E-07  1052   0.447E-04    0.203E-03
RMM:  33    -0.497775073491E+03   -0.55321E-05   -0.86103E-08  1009   0.443E-04    0.122E-03
RMM:  34    -0.497775077267E+03   -0.37757E-05   -0.74898E-08   952   0.385E-04    0.151E-03
RMM:  35    -0.497775078834E+03   -0.15674E-05   -0.52255E-08   877   0.371E-04    0.753E-04
RMM:  36    -0.497775079181E+03   -0.34711E-06   -0.28781E-08   693   0.311E-04
   5 F= -.53316273E+03 E0= -.53317129E+03  d E =-.619003E+00  mag=    87.0346
       N       E                     dE             d eps       ncg     rms          rms(c)
DAV:   1    -0.497759829274E+03    0.15250E-01   -0.74451E+01  2096   0.104E+01    0.269E+00
RMM:   2    -0.498005408213E+03   -0.24558E+00   -0.12221E+00  2100   0.266E+00    0.553E+00
RMM:   3    -0.498132436884E+03   -0.12703E+00   -0.42900E-01  2224   0.128E+00    0.814E+00
RMM:   4    -0.498050338086E+03    0.82099E-01   -0.16007E-01  2103   0.798E-01    0.592E+00
RMM:   5    -0.497948338070E+03    0.10200E+00   -0.59893E-02  2100   0.505E-01    0.213E+00
RMM:   6    -0.497941792787E+03    0.65453E-02   -0.18872E-02  2102   0.274E-01    0.167E+00
RMM:   7    -0.497938057150E+03    0.37356E-02   -0.99277E-03  2100   0.200E-01    0.132E+00
RMM:   8    -0.497935092059E+03    0.29651E-02   -0.78985E-03  2100   0.182E-01    0.106E+00
RMM:   9    -0.497934507045E+03    0.58501E-03   -0.73259E-03  2103   0.169E-01    0.109E+00
RMM:  10    -0.497935274620E+03   -0.76757E-03   -0.84584E-03  2102   0.180E-01    0.120E+00
RMM:  11    -0.497933308755E+03    0.19659E-02   -0.68392E-03  2102   0.165E-01    0.892E-01
RMM:  12    -0.497930930713E+03    0.23780E-02   -0.33267E-03  2100   0.118E-01    0.409E-01
RMM:  13    -0.497930591153E+03    0.33956E-03   -0.93190E-04  2101   0.630E-02    0.284E-01
RMM:  14    -0.497930459396E+03    0.13176E-03   -0.36787E-04  2100   0.393E-02    0.226E-01
RMM:  15    -0.497930321585E+03    0.13781E-03   -0.16768E-04  2100   0.272E-02    0.122E-01
RMM:  16    -0.497930299624E+03    0.21961E-04   -0.10225E-04  2098   0.201E-02    0.113E-01
RMM:  17    -0.497930262844E+03    0.36780E-04   -0.66006E-05  2101   0.154E-02    0.694E-02
RMM:  18    -0.497930275553E+03   -0.12709E-04   -0.43951E-05  2100   0.129E-02    0.764E-02
RMM:  19    -0.497930290113E+03   -0.14560E-04   -0.32644E-05  2101   0.107E-02    0.524E-02
RMM:  20    -0.497930303255E+03   -0.13142E-04   -0.14547E-05  2096   0.758E-03    0.348E-02
RMM:  21    -0.497930327150E+03   -0.23894E-04   -0.60759E-06  1822   0.485E-03    0.289E-02
RMM:  22    -0.497930348450E+03   -0.21300E-04   -0.33039E-06  1606   0.412E-03    0.155E-02
RMM:  23    -0.497930376597E+03   -0.28147E-04   -0.15398E-06  1232   0.279E-03    0.138E-02
RMM:  24    -0.497930400068E+03   -0.23471E-04   -0.95813E-07  1186   0.236E-03    0.790E-03
RMM:  25    -0.497930425362E+03   -0.25294E-04   -0.46782E-07  1185   0.149E-03    0.887E-03
RMM:  26    -0.497930452182E+03   -0.26821E-04   -0.31447E-07  1187   0.130E-03    0.523E-03
RMM:  27    -0.497930473568E+03   -0.21386E-04   -0.17870E-07  1178   0.856E-04    0.545E-03
RMM:  28    -0.497930508749E+03   -0.35181E-04   -0.20156E-07  1196   0.827E-04    0.397E-03
RMM:  29    -0.497930540981E+03   -0.32231E-04   -0.18290E-07  1175   0.758E-04    0.454E-03
RMM:  30    -0.497930590446E+03   -0.49465E-04   -0.28186E-07  1214   0.775E-04    0.334E-03
RMM:  31    -0.497930617013E+03   -0.26567E-04   -0.15034E-07  1123   0.651E-04    0.326E-03
RMM:  32    -0.497930664495E+03   -0.47482E-04   -0.28831E-07  1181   0.637E-04    0.267E-03
RMM:  33    -0.497930687905E+03   -0.23410E-04   -0.13538E-07  1081   0.577E-04    0.229E-03
RMM:  34    -0.497930733714E+03   -0.45809E-04   -0.37362E-07  1157   0.595E-04    0.218E-03
RMM:  35    -0.497930754348E+03   -0.20634E-04   -0.16658E-07  1089   0.556E-04    0.189E-03
RMM:  36    -0.497930787898E+03   -0.33550E-04   -0.45629E-07  1194   0.607E-04    0.192E-03
RMM:  37    -0.497930795133E+03   -0.72350E-05   -0.10151E-07  1012   0.478E-04    0.116E-03
RMM:  38    -0.497930802350E+03   -0.72172E-05   -0.13675E-07   974   0.417E-04    0.138E-03
RMM:  39    -0.497930802297E+03    0.53275E-07   -0.57752E-08   873   0.364E-04
   6 F= -.53331954E+03 E0= -.53332996E+03  d E =-.156811E+00  mag=    87.0318
       N       E                     dE             d eps       ncg     rms          rms(c)
DAV:   1    -0.497919257376E+03    0.11545E-01   -0.10361E+01  2108   0.389E+00    0.975E-01
RMM:   2    -0.497949630643E+03   -0.30373E-01   -0.15295E-01  2100   0.921E-01    0.181E+00
RMM:   3    -0.497967722791E+03   -0.18092E-01   -0.56234E-02  2224   0.467E-01    0.291E+00
RMM:   4    -0.497955123372E+03    0.12599E-01   -0.20434E-02  2101   0.288E-01    0.200E+00
RMM:   5    -0.497944229699E+03    0.10894E-01   -0.67805E-03  2102   0.169E-01    0.680E-01
RMM:   6    -0.497943461066E+03    0.76863E-03   -0.17178E-03  2103   0.828E-02    0.470E-01
RMM:   7    -0.497943250114E+03    0.21095E-03   -0.95002E-04  2100   0.614E-02    0.463E-01
RMM:   8    -0.497942814087E+03    0.43603E-03   -0.96507E-04  2101   0.618E-02    0.362E-01
RMM:   9    -0.497942807126E+03    0.69611E-05   -0.10079E-03  2104   0.621E-02    0.411E-01
RMM:  10    -0.497942958101E+03   -0.15097E-03   -0.12125E-03  2101   0.675E-02    0.455E-01
RMM:  11    -0.497942580205E+03    0.37790E-03   -0.87151E-04  2101   0.594E-02    0.290E-01
RMM:  12    -0.497942307262E+03    0.27294E-03   -0.35242E-04  2102   0.384E-02    0.132E-01
RMM:  13    -0.497942260615E+03    0.46646E-04   -0.81388E-05  2102   0.184E-02    0.675E-02
RMM:  14    -0.497942255426E+03    0.51893E-05   -0.27994E-05  2096   0.107E-02    0.568E-02
RMM:  15    -0.497942248842E+03    0.65839E-05   -0.15361E-05  2096   0.777E-03    0.335E-02
RMM:  16    -0.497942253620E+03   -0.47773E-05   -0.11980E-05  2096   0.663E-03    0.378E-02
RMM:  17    -0.497942255788E+03   -0.21680E-05   -0.93449E-06  2094   0.538E-03    0.268E-02
RMM:  18    -0.497942259578E+03   -0.37900E-05   -0.47590E-06  1718   0.430E-03    0.176E-02
RMM:  19    -0.497942270271E+03   -0.10693E-04   -0.34716E-06  1540   0.384E-03    0.187E-02
RMM:  20    -0.497942274746E+03   -0.44750E-05   -0.18666E-06  1182   0.332E-03    0.844E-03
RMM:  21    -0.497942280201E+03   -0.54556E-05   -0.77222E-07  1163   0.194E-03    0.879E-03
RMM:  22    -0.497942286147E+03   -0.59460E-05   -0.41706E-07  1162   0.159E-03    0.389E-03
RMM:  23    -0.497942290716E+03   -0.45686E-05   -0.15612E-07  1153   0.904E-04    0.339E-03
RMM:  24    -0.497942297259E+03   -0.65436E-05   -0.90182E-08  1163   0.692E-04    0.215E-03
RMM:  25    -0.497942301643E+03   -0.43833E-05   -0.42887E-08  1018   0.476E-04    0.193E-03
RMM:  26    -0.497942309796E+03   -0.81536E-05   -0.33316E-08   942   0.375E-04    0.162E-03
RMM:  27    -0.497942314109E+03   -0.43128E-05   -0.19160E-08   817   0.341E-04    0.122E-03
RMM:  28    -0.497942322864E+03   -0.87555E-05   -0.28851E-08   761   0.317E-04    0.127E-03
RMM:  29    -0.497942328873E+03   -0.60089E-05   -0.20619E-08   674   0.299E-04    0.967E-04
RMM:  30    -0.497942336822E+03   -0.79484E-05   -0.28278E-08   630   0.298E-04    0.118E-03
RMM:  31    -0.497942341968E+03   -0.51461E-05   -0.15186E-08   537   0.274E-04    0.784E-04
RMM:  32    -0.497942348016E+03   -0.60479E-05   -0.32482E-08   653   0.294E-04    0.860E-04
RMM:  33    -0.497942353552E+03   -0.55366E-05   -0.29644E-08   612   0.287E-04    0.539E-04
RMM:  34    -0.497942359164E+03   -0.56116E-05   -0.40037E-08   668   0.296E-04    0.706E-04
RMM:  35    -0.497942362594E+03   -0.34301E-05   -0.21477E-08   552   0.278E-04    0.395E-04
RMM:  36    -0.497942365985E+03   -0.33914E-05   -0.38896E-08   655   0.292E-04    0.542E-04
RMM:  37    -0.497942367199E+03   -0.12136E-05   -0.15486E-08   513   0.264E-04    0.246E-04
RMM:  38    -0.497942367880E+03   -0.68141E-06   -0.21430E-08   540   0.267E-04
   7 F= -.53333235E+03 E0= -.53334346E+03  d E =-.169619E+00  mag=    87.0325
       N       E                     dE             d eps       ncg     rms          rms(c)
DAV:   1    -0.497902925020E+03    0.39442E-01   -0.42029E+01  2096   0.777E+00    0.206E+00
RMM:   2    -0.498055778858E+03   -0.15285E+00   -0.68461E-01  2100   0.192E+00    0.461E+00
RMM:   3    -0.498134523658E+03   -0.78745E-01   -0.25206E-01  2240   0.972E-01    0.666E+00
RMM:   4    -0.498075684646E+03    0.58839E-01   -0.93095E-02  2104   0.608E-01    0.454E+00
RMM:   5    -0.498014201434E+03    0.61483E-01   -0.35367E-02  2100   0.390E-01    0.161E+00
RMM:   6    -0.498009851868E+03    0.43496E-02   -0.10192E-02  2101   0.201E-01    0.113E+00
RMM:   7    -0.498007730169E+03    0.21217E-02   -0.43800E-03  2100   0.132E-01    0.828E-01
RMM:   8    -0.498005996839E+03    0.17333E-02   -0.30549E-03  2100   0.111E-01    0.574E-01
RMM:   9    -0.498005545095E+03    0.45174E-03   -0.32605E-03  2102   0.111E-01    0.594E-01
RMM:  10    -0.498006482776E+03   -0.93768E-03   -0.44860E-03  2103   0.128E-01    0.775E-01
RMM:  11    -0.498005153074E+03    0.13297E-02   -0.33548E-03  2112   0.113E-01    0.598E-01
RMM:  12    -0.498004145057E+03    0.10080E-02   -0.14018E-03  2100   0.750E-02    0.270E-01
RMM:  13    -0.498004085537E+03    0.59520E-04   -0.40954E-04  2101   0.407E-02    0.235E-01
RMM:  14    -0.498003943535E+03    0.14200E-03   -0.19295E-04  2100   0.285E-02    0.132E-01
RMM:  15    -0.498003891388E+03    0.52147E-04   -0.77381E-05  2099   0.186E-02    0.687E-02
RMM:  16    -0.498003888960E+03    0.24283E-05   -0.47461E-05  2097   0.131E-02    0.787E-02
RMM:  17    -0.498003884671E+03    0.42891E-05   -0.35027E-05  2100   0.113E-02    0.506E-02
RMM:  18    -0.498003907321E+03   -0.22650E-04   -0.24742E-05  2097   0.946E-03    0.548E-02
RMM:  19    -0.498003934399E+03   -0.27079E-04   -0.17829E-05  2096   0.774E-03    0.326E-02
RMM:  20    -0.498003954632E+03   -0.20233E-04   -0.69598E-06  1844   0.523E-03    0.247E-02
RMM:  21    -0.498003987872E+03   -0.33240E-04   -0.35081E-06  1590   0.392E-03    0.194E-02
RMM:  22    -0.498004014415E+03   -0.26543E-04   -0.17918E-06  1232   0.322E-03    0.862E-03
RMM:  23    -0.498004049072E+03   -0.34657E-04   -0.78471E-07  1193   0.200E-03    0.866E-03
RMM:  24    -0.498004073522E+03   -0.24449E-04   -0.45854E-07  1182   0.160E-03    0.551E-03
RMM:  25    -0.498004104361E+03   -0.30839E-04   -0.25895E-07  1188   0.103E-03    0.572E-03
RMM:  26    -0.498004132364E+03   -0.28003E-04   -0.18726E-07  1183   0.929E-04    0.311E-03
RMM:  27    -0.498004165011E+03   -0.32646E-04   -0.15159E-07  1170   0.682E-04    0.362E-03
RMM:  28    -0.498004203854E+03   -0.38843E-04   -0.17044E-07  1167   0.705E-04    0.271E-03
RMM:  29    -0.498004241980E+03   -0.38126E-04   -0.16209E-07  1110   0.611E-04    0.302E-03
RMM:  30    -0.498004292047E+03   -0.50067E-04   -0.24337E-07  1182   0.641E-04    0.221E-03
RMM:  31    -0.498004320384E+03   -0.28337E-04   -0.12163E-07  1027   0.517E-04    0.235E-03
RMM:  32    -0.498004369135E+03   -0.48750E-04   -0.27283E-07  1075   0.536E-04    0.174E-03
RMM:  33    -0.498004393697E+03   -0.24563E-04   -0.12418E-07  1009   0.470E-04    0.175E-03
RMM:  34    -0.498004437104E+03   -0.43407E-04   -0.35495E-07  1118   0.538E-04    0.129E-03
RMM:  35    -0.498004457548E+03   -0.20443E-04   -0.16918E-07  1055   0.466E-04    0.168E-03
RMM:  36    -0.498004476273E+03   -0.18725E-04   -0.18838E-07  1010   0.455E-04    0.107E-03
RMM:  37    -0.498004481999E+03   -0.57264E-05   -0.55792E-08   842   0.358E-04    0.846E-04
RMM:  38    -0.498004487317E+03   -0.53177E-05   -0.57473E-08   718   0.325E-04    0.716E-04
RMM:  39    -0.498004488164E+03   -0.84689E-06   -0.23438E-08   595   0.288E-04
   8 F= -.53339451E+03 E0= -.53340690E+03  d E =-.621641E-01  mag=    87.0276
       N       E                     dE             d eps       ncg     rms          rms(c)
DAV:   1    -0.498001725470E+03    0.27618E-02   -0.19070E+00  2148   0.165E+00    0.431E-01
RMM:   2    -0.498007882722E+03   -0.61573E-02   -0.28899E-02  2100   0.386E-01    0.866E-01
RMM:   3    -0.498011936813E+03   -0.40541E-02   -0.11096E-02  2240   0.205E-01    0.142E+00
RMM:   4    -0.498009089312E+03    0.28475E-02   -0.41272E-03  2104   0.128E-01    0.920E-01
RMM:   5    -0.498006592916E+03    0.24964E-02   -0.14379E-03  2100   0.789E-02    0.303E-01
RMM:   6    -0.498006432626E+03    0.16029E-03   -0.33981E-04  2104   0.367E-02    0.193E-01
RMM:   7    -0.498006371761E+03    0.60866E-04   -0.14236E-04  2098   0.237E-02    0.161E-01
RMM:   8    -0.498006295222E+03    0.76538E-04   -0.12697E-04  2099   0.219E-02    0.114E-01
RMM:   9    -0.498006284250E+03    0.10973E-04   -0.15557E-04  2101   0.239E-02    0.136E-01
RMM:  10    -0.498006313000E+03   -0.28750E-04   -0.20467E-04  2105   0.268E-02    0.166E-01
RMM:  11    -0.498006251603E+03    0.61397E-04   -0.14591E-04  2104   0.238E-02    0.127E-01
RMM:  12    -0.498006201767E+03    0.49836E-04   -0.57688E-05  2099   0.151E-02    0.570E-02
RMM:  13    -0.498006195237E+03    0.65303E-05   -0.14517E-05  2061   0.766E-03    0.322E-02
RMM:  14    -0.498006193910E+03    0.13269E-05   -0.53767E-06  1805   0.470E-03    0.201E-02
RMM:  15    -0.498006194036E+03   -0.12650E-06   -0.26079E-06  1403   0.359E-03
   9 F= -.53339645E+03 E0= -.53340906E+03  d E =-.640983E-01  mag=    87.0274
       N       E                     dE             d eps       ncg     rms          rms(c)
DAV:   1    -0.497971217654E+03    0.34976E-01   -0.28243E+01  2096   0.629E+00    0.155E+00
RMM:   2    -0.498084271872E+03   -0.11305E+00   -0.46293E-01  2100   0.155E+00    0.440E+00
RMM:   3    -0.498107413168E+03   -0.23141E-01   -0.14599E-01  2297   0.718E-01    0.491E+00
RMM:   4    -0.498087739947E+03    0.19673E-01   -0.50378E-02  2102   0.438E-01    0.380E+00
RMM:   5    -0.498038916984E+03    0.48823E-01   -0.24212E-02  2101   0.325E-01    0.765E-01
RMM:   6    -0.498039206654E+03   -0.28967E-03   -0.53043E-03  2102   0.145E-01    0.859E-01
RMM:   7    -0.498037837412E+03    0.13692E-02   -0.25852E-03  2100   0.100E-01    0.662E-01
RMM:   8    -0.498036710994E+03    0.11264E-02   -0.17220E-03  2100   0.834E-02    0.435E-01
RMM:   9    -0.498037219754E+03   -0.50876E-03   -0.23083E-03  2100   0.912E-02    0.645E-01
RMM:  10    -0.498036888522E+03    0.33123E-03   -0.28888E-03  2107   0.999E-02    0.624E-01
RMM:  11    -0.498036253628E+03    0.63489E-03   -0.20724E-03  2106   0.888E-02    0.469E-01
RMM:  12    -0.498035626519E+03    0.62711E-03   -0.89570E-04  2100   0.596E-02    0.215E-01
RMM:  13    -0.498035532605E+03    0.93915E-04   -0.29341E-04  2100   0.350E-02    0.172E-01
RMM:  14    -0.498035425740E+03    0.10686E-03   -0.11713E-04  2100   0.222E-02    0.775E-02
RMM:  15    -0.498035410113E+03    0.15628E-04   -0.46912E-05  2097   0.139E-02    0.832E-02
RMM:  16    -0.498035384466E+03    0.25647E-04   -0.32867E-05  2097   0.109E-02    0.536E-02
RMM:  17    -0.498035379954E+03    0.45114E-05   -0.19335E-05  2096   0.855E-03    0.379E-02
RMM:  18    -0.498035403133E+03   -0.23178E-04   -0.20779E-05  2096   0.812E-03    0.471E-02
RMM:  19    -0.498035414207E+03   -0.11075E-04   -0.11865E-05  2094   0.651E-03    0.211E-02
RMM:  20    -0.498035437942E+03   -0.23735E-04   -0.45682E-06  1737   0.422E-03    0.236E-02
RMM:  21    -0.498035467218E+03   -0.29275E-04   -0.23975E-06  1384   0.352E-03    0.127E-02
RMM:  22    -0.498035489751E+03   -0.22533E-04   -0.11642E-06  1198   0.250E-03    0.103E-02
RMM:  23    -0.498035521973E+03   -0.32222E-04   -0.64642E-07  1200   0.184E-03    0.828E-03
RMM:  24    -0.498035545705E+03   -0.23732E-04   -0.36420E-07  1184   0.134E-03    0.636E-03
RMM:  25    -0.498035580588E+03   -0.34883E-04   -0.28052E-07  1198   0.102E-03    0.552E-03
RMM:  26    -0.498035608894E+03   -0.28307E-04   -0.23073E-07  1188   0.955E-04    0.513E-03
RMM:  27    -0.498035657786E+03   -0.48892E-04   -0.35237E-07  1227   0.940E-04    0.526E-03
RMM:  28    -0.498035705105E+03   -0.47320E-04   -0.37535E-07  1239   0.100E-03    0.437E-03
RMM:  29    -0.498035774700E+03   -0.69595E-04   -0.70290E-07  1303   0.105E-03    0.547E-03
RMM:  30    -0.498035816647E+03   -0.41947E-04   -0.44591E-07  1242   0.103E-03    0.337E-03
RMM:  31    -0.498035858809E+03   -0.42162E-04   -0.49495E-07  1265   0.864E-04    0.424E-03
RMM:  32    -0.498035889900E+03   -0.31091E-04   -0.42065E-07  1223   0.884E-04    0.237E-03
RMM:  33    -0.498035909787E+03   -0.19887E-04   -0.30233E-07  1170   0.688E-04    0.332E-03
RMM:  34    -0.498035922613E+03   -0.12826E-04   -0.24328E-07  1171   0.688E-04    0.159E-03
RMM:  35    -0.498035927205E+03   -0.45919E-05   -0.14192E-07  1077   0.510E-04    0.220E-03
RMM:  36    -0.498035926892E+03    0.31324E-06   -0.10136E-07  1015   0.471E-04
  10 F= -.53342924E+03 E0= -.53344272E+03  d E =-.327882E-01  mag=    87.0088
       N       E                     dE             d eps       ncg     rms          rms(c)
DAV:   1    -0.498033937126E+03    0.19901E-02   -0.94446E-01  2148   0.115E+00    0.279E-01
RMM:   2    -0.498037337779E+03   -0.34007E-02   -0.14749E-02  2100   0.274E-01    0.740E-01
RMM:   3    -0.498038535964E+03   -0.11982E-02   -0.47659E-03  2284   0.130E-01    0.931E-01
RMM:   4    -0.498037789879E+03    0.74608E-03   -0.17059E-03  2102   0.810E-02    0.695E-01
RMM:   5    -0.498036155601E+03    0.16343E-02   -0.78905E-04  2101   0.589E-02    0.134E-01
RMM:   6    -0.498036162829E+03   -0.72281E-05   -0.14404E-04  2102   0.237E-02    0.128E-01
RMM:   7    -0.498036133506E+03    0.29322E-04   -0.73630E-05  2098   0.166E-02    0.118E-01
RMM:   8    -0.498036095042E+03    0.38464E-04   -0.60503E-05  2098   0.152E-02    0.800E-02
RMM:   9    -0.498036115568E+03   -0.20526E-04   -0.84244E-05  2103   0.172E-02    0.126E-01
RMM:  10    -0.498036097672E+03    0.17896E-04   -0.10149E-04  2104   0.183E-02    0.117E-01
RMM:  11    -0.498036071773E+03    0.25899E-04   -0.65684E-05  2100   0.159E-02    0.754E-02
RMM:  12    -0.498036056165E+03    0.15608E-04   -0.23917E-05  2096   0.964E-03    0.403E-02
RMM:  13    -0.498036051675E+03    0.44903E-05   -0.66451E-06  1835   0.535E-03    0.201E-02
RMM:  14    -0.498036050731E+03    0.94435E-06   -0.21468E-06  1274   0.321E-03
  11 F= -.53343003E+03 E0= -.53344364E+03  d E =-.335855E-01  mag=    87.0077
       N       E                     dE             d eps       ncg     rms          rms(c)
DAV:   1    -0.498026572766E+03    0.94789E-02   -0.95834E+00  2096   0.367E+00    0.874E-01
RMM:   2    -0.498068804197E+03   -0.42231E-01   -0.15148E-01  2100   0.881E-01    0.280E+00
RMM:   3    -0.498067818131E+03    0.98607E-03   -0.45467E-02  2311   0.397E-01    0.263E+00
RMM:   4    -0.498062349208E+03    0.54689E-02   -0.17165E-02  2100   0.260E-01    0.197E+00
RMM:   5    -0.498049404048E+03    0.12945E-01   -0.79015E-03  2101   0.187E-01    0.679E-01
RMM:   6    -0.498048263226E+03    0.11408E-02   -0.17364E-03  2101   0.849E-02    0.318E-01
RMM:   7    -0.498048311139E+03   -0.47913E-04   -0.76511E-04  2099   0.551E-02    0.425E-01
RMM:   8    -0.498047811015E+03    0.50012E-03   -0.60037E-04  2102   0.479E-02    0.245E-01
RMM:   9    -0.498048060857E+03   -0.24984E-03   -0.75086E-04  2100   0.528E-02    0.398E-01
RMM:  10    -0.498048090591E+03   -0.29734E-04   -0.10622E-03  2106   0.600E-02    0.417E-01
RMM:  11    -0.498047670443E+03    0.42015E-03   -0.75133E-04  2120   0.532E-02    0.201E-01
RMM:  12    -0.498047588839E+03    0.81604E-04   -0.27508E-04  2100   0.330E-02    0.134E-01
RMM:  13    -0.498047529293E+03    0.59546E-04   -0.82585E-05  2100   0.185E-02    0.692E-02
RMM:  14    -0.498047514925E+03    0.14368E-04   -0.25438E-05  2096   0.103E-02    0.505E-02
RMM:  15    -0.498047502680E+03    0.12246E-04   -0.13965E-05  2094   0.742E-03    0.398E-02
RMM:  16    -0.498047494185E+03    0.84947E-05   -0.97687E-06  2089   0.606E-03    0.318E-02
RMM:  17    -0.498047487320E+03    0.68647E-05   -0.78249E-06  2068   0.517E-03    0.217E-02
RMM:  18    -0.498047485218E+03    0.21021E-05   -0.62915E-06  1901   0.477E-03    0.246E-02
RMM:  19    -0.498047482787E+03    0.24313E-05   -0.42854E-06  1687   0.421E-03    0.156E-02
RMM:  20    -0.498047483444E+03   -0.65711E-06   -0.16046E-06  1182   0.294E-03
  12 F= -.53344435E+03 E0= -.53345774E+03  d E =-.143192E-01  mag=    87.0131
       N       E                     dE             d eps       ncg     rms          rms(c)
DAV:   1    -0.498040524995E+03    0.69578E-02   -0.35027E+00  2096   0.222E+00    0.526E-01
RMM:   2    -0.498055518954E+03   -0.14994E-01   -0.54682E-02  2100   0.529E-01    0.166E+00
RMM:   3    -0.498055647546E+03   -0.12859E-03   -0.16537E-02  2307   0.240E-01    0.161E+00
RMM:   4    -0.498053627587E+03    0.20200E-02   -0.63063E-03  2100   0.158E-01    0.119E+00
RMM:   5    -0.498048819235E+03    0.48084E-02   -0.28423E-03  2100   0.112E-01    0.407E-01
RMM:   6    -0.498048414041E+03    0.40519E-03   -0.60342E-04  2102   0.501E-02    0.181E-01
RMM:   7    -0.498048431591E+03   -0.17550E-04   -0.25935E-04  2099   0.320E-02    0.248E-01
RMM:   8    -0.498048259304E+03    0.17229E-03   -0.22543E-04  2102   0.288E-02    0.152E-01
RMM:   9    -0.498048353229E+03   -0.93926E-04   -0.28856E-04  2100   0.326E-02    0.243E-01
RMM:  10    -0.498048378774E+03   -0.25545E-04   -0.39868E-04  2104   0.366E-02    0.259E-01
RMM:  11    -0.498048217311E+03    0.16146E-03   -0.27097E-04  2115   0.320E-02    0.118E-01
RMM:  12    -0.498048189189E+03    0.28123E-04   -0.91720E-05  2102   0.191E-02    0.788E-02
RMM:  13    -0.498048168893E+03    0.20295E-04   -0.26747E-05  2096   0.104E-02    0.396E-02
RMM:  14    -0.498048164561E+03    0.43322E-05   -0.73130E-06  1863   0.557E-03    0.264E-02
RMM:  15    -0.498048162258E+03    0.23033E-05   -0.46089E-06  1743   0.437E-03    0.244E-02
RMM:  16    -0.498048160266E+03    0.19912E-05   -0.40516E-06  1680   0.412E-03    0.182E-02
RMM:  17    -0.498048159640E+03    0.62666E-06   -0.33226E-06  1448   0.366E-03
  13 F= -.53344689E+03 E0= -.53346013E+03  d E =-.168555E-01  mag=    87.0174
       N       E                     dE             d eps       ncg     rms          rms(c)
DAV:   1    -0.498041912228E+03    0.62480E-02   -0.33919E+00  2096   0.222E+00    0.574E-01
RMM:   2    -0.498055360477E+03   -0.13448E-01   -0.50534E-02  2100   0.508E-01    0.144E+00
RMM:   3    -0.498062489616E+03   -0.71291E-02   -0.17178E-02  2257   0.251E-01    0.202E+00
RMM:   4    -0.498054780205E+03    0.77094E-02   -0.78191E-03  2100   0.176E-01    0.123E+00
RMM:   5    -0.498050321505E+03    0.44587E-02   -0.35477E-03  2101   0.126E-01    0.445E-01
RMM:   6    -0.498049916470E+03    0.40504E-03   -0.72273E-04  2100   0.541E-02    0.243E-01
RMM:   7    -0.498049858904E+03    0.57566E-04   -0.30149E-04  2103   0.347E-02    0.227E-01
RMM:   8    -0.498049685466E+03    0.17344E-03   -0.24187E-04  2102   0.306E-02    0.143E-01
RMM:   9    -0.498049702933E+03   -0.17466E-04   -0.28267E-04  2101   0.323E-02    0.197E-01
RMM:  10    -0.498049691120E+03    0.11813E-04   -0.36122E-04  2104   0.360E-02    0.209E-01
RMM:  11    -0.498049604419E+03    0.86701E-04   -0.23992E-04  2103   0.307E-02    0.163E-01
RMM:  12    -0.498049508899E+03    0.95520E-04   -0.88634E-05  2099   0.188E-02    0.698E-02
RMM:  13    -0.498049493841E+03    0.15058E-04   -0.25681E-05  2096   0.103E-02    0.418E-02
RMM:  14    -0.498049487605E+03    0.62358E-05   -0.10055E-05  2046   0.636E-03    0.328E-02
RMM:  15    -0.498049483045E+03    0.45598E-05   -0.46068E-06  1738   0.456E-03    0.178E-02
RMM:  16    -0.498049483781E+03   -0.73570E-06   -0.34285E-06  1562   0.376E-03
  14 F= -.53345149E+03 E0= -.53346468E+03  d E =-.459598E-02  mag=    87.0185
