 vasp.5.4.4.18Apr17-6-g9f103f2a35 (build Jun 19 2019 11:58:18) complex          
  
 executed on             LinuxIFC date 2022.03.01  16:09:24
 running on   32 total cores
 distrk:  each k-point on   32 cores,    1 groups
 distr:  one band on NCORES_PER_BAND=   8 cores,    4 groups


--------------------------------------------------------------------------------------------------------


 INCAR:
 POTCAR:    PAW_PBE Pt 04Feb2005                  
 POTCAR:    PAW_PBE Pd 04Jan2005                  
 POTCAR:    PAW_PBE Ni 02Aug2007                  
 POTCAR:    PAW_PBE Co 02Aug2007                  
 POTCAR:    PAW_PBE Fe 06Sep2000                  
 POTCAR:    PAW_PBE Pt 04Feb2005                  
   VRHFIN =Pt: s1d9                                                             
   LEXCH  = PE                                                                  
   EATOM  =   729.1176 eV,   53.5886 Ry                                         
                                                                                
   TITEL  = PAW_PBE Pt 04Feb2005                                                
   LULTRA =        F    use ultrasoft PP ?                                      
   IUNSCR =        1    unscreen: 0-lin 1-nonlin 2-no                           
   RPACOR =    2.330    partial core radius                                     
   POMASS =  195.080; ZVAL   =   10.000    mass and valenz                      
   RCORE  =    2.600    outmost cutoff radius                                   
   RWIGS  =    2.750; RWIGS  =    1.455    wigner-seitz radius (au A)           
   ENMAX  =  230.283; ENMIN  =  172.712 eV                                      
   ICORE  =        3    local potential                                         
   LCOR   =        T    correct aug charges                                     
   LPAW   =        T    paw PP                                                  
   EAUG   =  358.966                                                            
   DEXC   =    0.000                                                            
   RMAX   =    2.658    core radius for proj-oper                               
   RAUG   =    1.300    factor for augmentation sphere                          
   RDEP   =    2.761    radius for radial grids                                 
   RDEPT  =    2.203    core radius for aug-charge                              
                                                                                
   Atomic configuration                                                         
   16 entries                                                                   
     n  l   j            E        occ.                                          
     1  0  0.50    -78401.1885   2.0000                                         
     2  0  0.50    -13770.7750   2.0000                                         
     2  1  1.50    -11931.0468   6.0000                                         
     3  0  0.50     -3234.7234   2.0000                                         
     3  1  1.50     -2699.2216   6.0000                                         
     3  2  2.50     -2119.5714  10.0000                                         
     4  0  0.50      -695.1528   2.0000                                         
     4  1  1.50      -519.6034   6.0000                                         
     4  2  2.50      -306.6786  10.0000                                         
     4  3  3.50       -70.1041  14.0000                                         
     5  0  0.50      -101.7747   2.0000                                         
     5  1  1.50       -55.9873   6.0000                                         
     5  2  2.50        -6.1423   9.0000                                         
     6  0  0.50        -5.6573   1.0000                                         
     6  1  1.50        -6.8029   0.0000                                         
     5  3  2.50        -1.3606   0.0000                                         
   Description                                                                  
     l       E           TYP  RCUT    TYP  RCUT                                 
     2     -6.1423404     23  2.500                                             
     2     -7.5029230     23  2.500                                             
     0     -5.6573207     23  2.500                                             
     0      0.7416693     23  2.500                                             
     1     -2.7211652     23  2.600                                             
     1     20.4087390     23  2.600                                             
     3     -1.3605826     23  2.500                                             
  local pseudopotential read in
  partial core-charges read in
  partial kinetic energy density read in
  atomic valenz-charges read in
  non local Contribution for L=           2  read in
    real space projection operators read in
  non local Contribution for L=           2  read in
    real space projection operators read in
  non local Contribution for L=           0  read in
    real space projection operators read in
  non local Contribution for L=           0  read in
    real space projection operators read in
  non local Contribution for L=           1  read in
    real space projection operators read in
  non local Contribution for L=           1  read in
    real space projection operators read in
    PAW grid and wavefunctions read in
 
   number of l-projection  operators is LMAX  =           6
   number of lm-projection operators is LMMAX =          18
 
 POTCAR:    PAW_PBE Pd 04Jan2005                  
   VRHFIN =Pd : s1 d9                                                           
   LEXCH  = PE                                                                  
   EATOM  =   809.7530 eV,   59.5152 Ry                                         
                                                                                
   TITEL  = PAW_PBE Pd 04Jan2005                                                
   LULTRA =        F    use ultrasoft PP ?                                      
   IUNSCR =        1    unscreen: 0-lin 1-nonlin 2-no                           
   RPACOR =    2.000    partial core radius                                     
   POMASS =  106.420; ZVAL   =   10.000    mass and valenz                      
   RCORE  =    2.600    outmost cutoff radius                                   
   RWIGS  =    2.710; RWIGS  =    1.434    wigner-seitz radius (au A)           
   ENMAX  =  250.925; ENMIN  =  188.194 eV                                      
   ICORE  =        3    local potential                                         
   LCOR   =        T    correct aug charges                                     
   LPAW   =        T    paw PP                                                  
   EAUG   =  416.230                                                            
   DEXC   =    0.000                                                            
   RMAX   =    2.653    core radius for proj-oper                               
   RAUG   =    1.300    factor for augmentation sphere                          
   RDEP   =    2.734    radius for radial grids                                 
   RDEPT  =    2.103    core radius for aug-charge                              
                                                                                
   Atomic configuration                                                         
   12 entries                                                                   
     n  l   j            E        occ.                                          
     1  0  0.50    -24164.6631   2.0000                                         
     2  0  0.50     -3530.9218   2.0000                                         
     2  1  1.50     -3165.6822   6.0000                                         
     3  0  0.50      -639.4577   2.0000                                         
     3  1  1.50      -519.4532   6.0000                                         
     3  2  2.50      -328.9757  10.0000                                         
     4  0  0.50       -88.7014   2.0000                                         
     4  1  1.50       -54.4540   6.0000                                         
     4  2  2.50        -6.6878   9.0000                                         
     5  0  0.50        -4.3543   1.0000                                         
     5  1  0.50        -1.3606   0.0000                                         
     4  3  2.50        -1.3606   0.0000                                         
   Description                                                                  
     l       E           TYP  RCUT    TYP  RCUT                                 
     2     -6.6878251     23  2.400                                             
     2     -8.0484077     23  2.400                                             
     0     -4.3542939     23  2.400                                             
     0      4.3406793     23  2.400                                             
     1     -4.0817478     23  2.600                                             
     1     15.8380318     23  2.600                                             
     3     -4.0817478     23  2.400                                             
  local pseudopotential read in
  partial core-charges read in
  partial kinetic energy density read in
  atomic valenz-charges read in
  non local Contribution for L=           2  read in
    real space projection operators read in
  non local Contribution for L=           2  read in
    real space projection operators read in
  non local Contribution for L=           0  read in
    real space projection operators read in
  non local Contribution for L=           0  read in
    real space projection operators read in
  non local Contribution for L=           1  read in
    real space projection operators read in
  non local Contribution for L=           1  read in
    real space projection operators read in
    PAW grid and wavefunctions read in
 
   number of l-projection  operators is LMAX  =           6
   number of lm-projection operators is LMMAX =          18
 
 POTCAR:    PAW_PBE Ni 02Aug2007                  
   VRHFIN =Ni:                                                                  
   LEXCH  = PE                                                                  
   EATOM  =  1077.6739 eV,   79.2068 Ry                                         
                                                                                
   TITEL  = PAW_PBE Ni 02Aug2007                                                
   LULTRA =        F    use ultrasoft PP ?                                      
   IUNSCR =        1    unscreen: 0-lin 1-nonlin 2-no                           
   RPACOR =    2.000    partial core radius                                     
   POMASS =   58.690; ZVAL   =   10.000    mass and valenz                      
   RCORE  =    2.300    outmost cutoff radius                                   
   RWIGS  =    2.430; RWIGS  =    1.286    wigner-seitz radius (au A)           
   ENMAX  =  269.532; ENMIN  =  202.149 eV                                      
   RCLOC  =    1.201    cutoff for local pot                                    
   LCOR   =        T    correct aug charges                                     
   LPAW   =        T    paw PP                                                  
   EAUG   =  544.565                                                            
   DEXC   =    0.000                                                            
   RMAX   =    2.357    core radius for proj-oper                               
   RAUG   =    1.300    factor for augmentation sphere                          
   RDEP   =    2.390    radius for radial grids                                 
   RDEPT  =    1.838    core radius for aug-charge                              
                                                                                
   Atomic configuration                                                         
    9 entries                                                                   
     n  l   j            E        occ.                                          
     1  0  0.50     -8206.4253   2.0000                                         
     2  0  0.50      -976.1748   2.0000                                         
     2  1  1.50      -839.0571   6.0000                                         
     3  0  0.50      -105.9991   2.0000                                         
     3  1  1.50       -66.4603   6.0000                                         
     3  2  2.50        -4.6458   9.0000                                         
     4  0  0.50        -4.4926   1.0000                                         
     4  1  1.50        -4.0817   0.0000                                         
     4  3  2.50        -1.3606   0.0000                                         
   Description                                                                  
     l       E           TYP  RCUT    TYP  RCUT                                 
     2     -4.6457903     23  2.300                                             
     2     -6.0063729     23  2.300                                             
     0     -4.4925590     23  2.300                                             
     0      5.0102601     23  2.300                                             
     1     -2.7211652     23  2.300                                             
     1     16.5183231     23  2.300                                             
  local pseudopotential read in
  partial core-charges read in
  partial kinetic energy density read in
  atomic valenz-charges read in
  non local Contribution for L=           2  read in
    real space projection operators read in
  non local Contribution for L=           2  read in
    real space projection operators read in
  non local Contribution for L=           0  read in
    real space projection operators read in
  non local Contribution for L=           0  read in
    real space projection operators read in
  non local Contribution for L=           1  read in
    real space projection operators read in
  non local Contribution for L=           1  read in
    real space projection operators read in
    PAW grid and wavefunctions read in
 
   number of l-projection  operators is LMAX  =           6
   number of lm-projection operators is LMMAX =          18
 
 POTCAR:    PAW_PBE Co 02Aug2007                  
   VRHFIN =Co: d8 s1                                                            
   LEXCH  = PE                                                                  
   EATOM  =   813.3670 eV,   59.7808 Ry                                         
                                                                                
   TITEL  = PAW_PBE Co 02Aug2007                                                
   LULTRA =        F    use ultrasoft PP ?                                      
   IUNSCR =        1    unscreen: 0-lin 1-nonlin 2-no                           
   RPACOR =    2.000    partial core radius                                     
   POMASS =   58.933; ZVAL   =    9.000    mass and valenz                      
   RCORE  =    2.300    outmost cutoff radius                                   
   RWIGS  =    2.460; RWIGS  =    1.302    wigner-seitz radius (au A)           
   ENMAX  =  267.968; ENMIN  =  200.976 eV                                      
   RCLOC  =    1.203    cutoff for local pot                                    
   LCOR   =        T    correct aug charges                                     
   LPAW   =        T    paw PP                                                  
   EAUG   =  477.818                                                            
   DEXC   =    0.000                                                            
   RMAX   =    2.360    core radius for proj-oper                               
   RAUG   =    1.300    factor for augmentation sphere                          
   RDEP   =    2.393    radius for radial grids                                 
   RDEPT  =    1.864    core radius for aug-charge                              
                                                                                
   Atomic configuration                                                         
    9 entries                                                                   
     n  l   j            E        occ.                                          
     1  0  0.50     -7587.6674   2.0000                                         
     2  0  0.50      -893.6084   2.0000                                         
     2  1  1.50      -764.5805   6.0000                                         
     3  0  0.50       -97.5973   2.0000                                         
     3  1  1.50       -60.9648   6.0000                                         
     3  2  2.50        -4.2382   8.0000                                         
     4  0  0.50        -4.3746   1.0000                                         
     4  1  1.50        -4.0817   0.0000                                         
     4  3  2.50        -1.3606   0.0000                                         
   Description                                                                  
     l       E           TYP  RCUT    TYP  RCUT                                 
     2     -4.2382362     23  2.300                                             
     2     -5.5988188     23  2.300                                             
     0     -4.3745797     23  2.300                                             
     0      5.7660125     23  2.300                                             
     1     -2.7211652     23  2.300                                             
     1     16.9860234     23  2.300                                             
  local pseudopotential read in
  partial core-charges read in
  partial kinetic energy density read in
  atomic valenz-charges read in
  non local Contribution for L=           2  read in
    real space projection operators read in
  non local Contribution for L=           2  read in
    real space projection operators read in
  non local Contribution for L=           0  read in
    real space projection operators read in
  non local Contribution for L=           0  read in
    real space projection operators read in
  non local Contribution for L=           1  read in
    real space projection operators read in
  non local Contribution for L=           1  read in
    real space projection operators read in
    PAW grid and wavefunctions read in
 
   number of l-projection  operators is LMAX  =           6
   number of lm-projection operators is LMMAX =          18
 
 POTCAR:    PAW_PBE Fe 06Sep2000                  
   VRHFIN =Fe:  d7 s1                                                           
   LEXCH  = PE                                                                  
   EATOM  =   594.3153 eV,   43.6809 Ry                                         
                                                                                
   TITEL  = PAW_PBE Fe 06Sep2000                                                
   LULTRA =        F    use ultrasoft PP ?                                      
   IUNSCR =        1    unscreen: 0-lin 1-nonlin 2-no                           
   RPACOR =    2.000    partial core radius                                     
   POMASS =   55.847; ZVAL   =    8.000    mass and valenz                      
   RCORE  =    2.300    outmost cutoff radius                                   
   RWIGS  =    2.460; RWIGS  =    1.302    wigner-seitz radius (au A)           
   ENMAX  =  267.882; ENMIN  =  200.911 eV                                      
   RCLOC  =    1.701    cutoff for local pot                                    
   LCOR   =        T    correct aug charges                                     
   LPAW   =        T    paw PP                                                  
   EAUG   =  511.368                                                            
   DEXC   =    0.000                                                            
   RMAX   =    2.356    core radius for proj-oper                               
   RAUG   =    1.300    factor for augmentation sphere                          
   RDEP   =    2.442    radius for radial grids                                 
   RDEPT  =    1.890    core radius for aug-charge                              
                                                                                
   Atomic configuration                                                         
    9 entries                                                                   
     n  l   j            E        occ.                                          
     1  0  0.50     -6993.8440   2.0000                                         
     2  0  0.50      -814.6047   2.0000                                         
     2  1  1.50      -693.3689   6.0000                                         
     3  0  0.50       -89.4732   2.0000                                         
     3  1  1.50       -55.6373   6.0000                                         
     3  2  2.50        -3.8151   7.0000                                         
     4  0  0.50        -4.2551   1.0000                                         
     4  1  1.50        -3.4015   0.0000                                         
     4  3  2.50        -1.3606   0.0000                                         
   Description                                                                  
     l       E           TYP  RCUT    TYP  RCUT                                 
     2     -3.8151135     23  2.300                                             
     2     -5.1756961     23  2.300                                             
     0     -4.2550963     23  2.300                                             
     0      7.2035603     23  2.300                                             
     1     -2.7211652     23  2.300                                             
     1     18.4316424     23  2.300                                             
  local pseudopotential read in
  partial core-charges read in
  partial kinetic energy density read in
  atomic valenz-charges read in
  non local Contribution for L=           2  read in
    real space projection operators read in
  non local Contribution for L=           2  read in
    real space projection operators read in
  non local Contribution for L=           0  read in
    real space projection operators read in
  non local Contribution for L=           0  read in
    real space projection operators read in
  non local Contribution for L=           1  read in
    real space projection operators read in
  non local Contribution for L=           1  read in
    real space projection operators read in
    PAW grid and wavefunctions read in
 
   number of l-projection  operators is LMAX  =           6
   number of lm-projection operators is LMMAX =          18
 
 Optimization of the real space projectors (new method)

 maximal supplied QI-value         = 14.36
 optimisation between [QCUT,QGAM] = [ 11.35, 22.84] = [ 36.05,146.02] Ry 
 Optimized for a Real-space Cutoff    1.52 Angstroem

   l    n(q)    QCUT    max X(q) W(low)/X(q) W(high)/X(q)  e(spline) 
   2      9    11.346    66.195    0.18E-03    0.31E-04    0.24E-06
   2      9    11.346    64.643    0.18E-03    0.31E-04    0.25E-06
   0     10    11.346    95.520    0.43E-04    0.40E-05    0.18E-06
   0     10    11.346    63.403    0.42E-04    0.39E-05    0.17E-06
   1     10    11.346    19.961    0.83E-04    0.43E-04    0.12E-06
   1     10    11.346    13.289    0.69E-04    0.37E-04    0.98E-07
 Optimization of the real space projectors (new method)

 maximal supplied QI-value         = 14.36
 optimisation between [QCUT,QGAM] = [ 11.35, 22.84] = [ 36.05,146.02] Ry 
 Optimized for a Real-space Cutoff    1.47 Angstroem

   l    n(q)    QCUT    max X(q) W(low)/X(q) W(high)/X(q)  e(spline) 
   2      9    11.346    59.108    0.74E-04    0.81E-04    0.26E-06
   2      9    11.346    58.101    0.74E-04    0.83E-04    0.27E-06
   0     10    11.346   102.235    0.26E-04    0.31E-04    0.16E-06
   0     10    11.346    58.388    0.23E-04    0.29E-04    0.15E-06
   1     10    11.346    22.191    0.23E-03    0.26E-03    0.14E-06
   1     10    11.346    15.590    0.19E-03    0.22E-03    0.12E-06
 Optimization of the real space projectors (new method)

 maximal supplied QI-value         = 16.25
 optimisation between [QCUT,QGAM] = [ 11.38, 22.75] = [ 36.24,144.96] Ry 
 Optimized for a Real-space Cutoff    1.47 Angstroem

   l    n(q)    QCUT    max X(q) W(low)/X(q) W(high)/X(q)  e(spline) 
   2      9    11.376    60.317    0.17E-03    0.16E-04    0.16E-06
   2      9    11.376    55.921    0.17E-03    0.16E-04    0.17E-06
   0     10    11.376    51.690    0.45E-04    0.60E-04    0.21E-06
   0     10    11.376    30.015    0.37E-04    0.55E-04    0.19E-06
   1     10    11.376    18.849    0.83E-04    0.11E-03    0.92E-07
   1     10    11.376    14.624    0.69E-04    0.92E-04    0.82E-07
 Optimization of the real space projectors (new method)

 maximal supplied QI-value         = 16.25
 optimisation between [QCUT,QGAM] = [ 11.38, 22.75] = [ 36.24,144.96] Ry 
 Optimized for a Real-space Cutoff    1.43 Angstroem

   l    n(q)    QCUT    max X(q) W(low)/X(q) W(high)/X(q)  e(spline) 
   2      9    11.376    65.824    0.18E-03    0.28E-04    0.14E-06
   2      9    11.376    61.429    0.18E-03    0.29E-04    0.14E-06
   0     10    11.376    56.174    0.51E-04    0.12E-03    0.20E-06
   0     10    11.376    31.263    0.46E-04    0.11E-03    0.18E-06
   1      9    11.376    19.828    0.23E-03    0.17E-03    0.10E-06
   1      9    11.376    15.139    0.20E-03    0.14E-03    0.89E-07
 Optimization of the real space projectors (new method)

 maximal supplied QI-value         = 16.25
 optimisation between [QCUT,QGAM] = [ 11.38, 22.75] = [ 36.24,144.96] Ry 
 Optimized for a Real-space Cutoff    1.52 Angstroem

   l    n(q)    QCUT    max X(q) W(low)/X(q) W(high)/X(q)  e(spline) 
   2      9    11.376    80.901    0.22E-03    0.86E-04    0.27E-06
   2      9    11.376    75.754    0.23E-03    0.87E-04    0.27E-06
   0     10    11.376    58.752    0.56E-04    0.38E-04    0.25E-06
   0     10    11.376    30.679    0.47E-04    0.35E-04    0.23E-06
   1     10    11.376    17.977    0.50E-04    0.42E-04    0.12E-06
   1     10    11.376    13.559    0.42E-04    0.37E-04    0.11E-06
  PAW_PBE Pt 04Feb2005                  :
 energy of atom  1       EATOM= -729.1176
 kinetic energy error for atom=    0.0039 (will be added to EATOM!!)
  PAW_PBE Pd 04Jan2005                  :
 energy of atom  2       EATOM= -809.7530
 kinetic energy error for atom=    0.0049 (will be added to EATOM!!)
  PAW_PBE Ni 02Aug2007                  :
 energy of atom  3       EATOM=-1077.6739
 kinetic energy error for atom=    0.0030 (will be added to EATOM!!)
  PAW_PBE Co 02Aug2007                  :
 energy of atom  4       EATOM= -813.3670
 kinetic energy error for atom=    0.0028 (will be added to EATOM!!)
  PAW_PBE Fe 06Sep2000                  :
 energy of atom  5       EATOM= -594.3153
 kinetic energy error for atom=    0.0026 (will be added to EATOM!!)
 
 
 POSCAR: Pt   Pd   Ni   Co   Fe                  
  positions in direct lattice
  No initial velocities read in
 exchange correlation table for  LEXCH =        8
   RHO(1)=    0.500       N(1)  =     2000
   RHO(2)=  100.500       N(2)  =     4000
 


--------------------------------------------------------------------------------------------------------


 ion  position               nearest neighbor table
   1  0.449  0.043  0.188-  34 2.48  78 2.55  54 2.59  10 2.62  33 2.62   7 2.63  59 2.63  26 2.65
                            22 2.68  39 2.70  30 2.77  43 2.79
   2  0.438  0.037  0.469-  40 2.54  47 2.55  28 2.64  21 2.65   6 2.65  44 2.65  62 2.66  80 2.66
                            38 2.70
   3  0.185  0.286  0.472-  41 2.50  28 2.54  21 2.56  27 2.56  14 2.63  17 2.67  32 2.71  71 2.73
                            37 2.77
   4  0.093  0.612  0.368-  79 2.48  51 2.53  71 2.54  42 2.55  63 2.56  74 2.58  55 2.60  38 2.64
                            18 2.72  13 2.72  44 2.75  41 2.79
   5  0.929  0.783  0.468-  52 2.51  23 2.51  32 2.57  74 2.58  69 2.60  44 2.60  13 2.62  21 2.63
                            63 2.66
   6  0.358  0.121  0.373-  10 2.50  75 2.54  37 2.56  43 2.58  15 2.60  38 2.62  80 2.62   2 2.65
                            17 2.66  28 2.67  21 2.76  74 2.79
   7  0.360  0.873  0.095-  54 2.56  77 2.57  59 2.61  39 2.62   1 2.63  30 2.72  11 2.74  31 2.74
                            58 2.82
   8  0.765  0.684  0.279-  79 2.53  67 2.53  63 2.56  66 2.56  60 2.57  24 2.61  57 2.62  48 2.63
                            16 2.68  65 2.69  20 2.74  23 2.77
   9  0.183  0.294  0.183-  68 2.52  61 2.52  46 2.55  76 2.59  50 2.66  45 2.67  22 2.68  36 2.69
                            26 2.70  19 2.74  29 2.75  75 2.79  11 3.45
  10  0.516  0.203  0.283-  66 2.47  75 2.48   6 2.50  15 2.53  35 2.53  33 2.55  67 2.56   1 2.62
                            26 2.63  78 2.63  80 2.65  43 2.67
  11  0.359  0.607  0.096-  45 2.49  46 2.51  56 2.54  77 2.59  68 2.62  59 2.64  61 2.67   7 2.74
                            31 2.74   9 3.45
  12  0.847  0.116  0.091-  54 2.60  77 2.60  19 2.61  34 2.61  25 2.62  68 2.62  72 2.63  36 2.65
                            76 2.71
  13  0.929  0.529  0.468-  47 2.58  14 2.61  63 2.61  41 2.62   5 2.62  69 2.64  44 2.64  55 2.68
                             4 2.72
  14  0.925  0.275  0.470-  40 2.51  32 2.51  47 2.53  73 2.54  13 2.61   3 2.63  41 2.65  55 2.67
                            71 2.69
  15  0.608  0.370  0.371-  37 2.44  66 2.48  63 2.50  55 2.52  10 2.53  67 2.53  24 2.58   6 2.60
                            80 2.61  47 2.63  69 2.68  28 2.72
  16  0.020  0.943  0.281-  43 2.50  74 2.51  79 2.53  75 2.67  20 2.68   8 2.68  23 2.69  22 2.69
                            17 2.70  19 2.71  57 2.73  29 2.77
  17  0.102  0.125  0.374-  71 2.54  73 2.62  29 2.63  75 2.64   6 2.66  21 2.66  74 2.67   3 2.67
                            23 2.68  16 2.70  32 2.70  37 2.74
  18  0.357  0.614  0.376-  37 2.55  27 2.59  24 2.59  38 2.60  48 2.62  50 2.64  53 2.64  62 2.66
                            41 2.67  71 2.67   4 2.72  42 2.73
  19  0.926  0.026  0.185-  34 2.53  72 2.55  65 2.59  12 2.61  57 2.63  22 2.64  76 2.68  20 2.70
                            16 2.71  36 2.72   9 2.74  29 2.75
  20  0.764  0.949  0.284-  53 2.60  48 2.61  29 2.62  33 2.63  23 2.63  73 2.65  35 2.67  16 2.68
                            34 2.68  19 2.70  65 2.74   8 2.74
  21  0.181  0.036  0.471-   3 2.56  44 2.60  32 2.63   5 2.63  28 2.64   2 2.65  17 2.66  74 2.74
                             6 2.76
  22  0.186  0.036  0.184-  58 2.57  30 2.60  39 2.61  36 2.62  19 2.64   9 2.68   1 2.68  75 2.69
                            16 2.69  26 2.72  43 2.75  57 2.76
  23  0.851  0.863  0.377-  74 2.45  24 2.50   5 2.51  52 2.55  63 2.56  32 2.58  53 2.60  20 2.63
                            17 2.68  73 2.68  16 2.69   8 2.77
  24  0.612  0.622  0.375-  63 2.46  23 2.50  69 2.50  37 2.51  52 2.55  15 2.58  18 2.59   8 2.61
                            53 2.64  48 2.65  66 2.65  27 2.71
  25  0.844  0.368  0.097-  54 2.55  70 2.56  76 2.56  78 2.56  31 2.59  64 2.60  12 2.62  49 2.65
                            68 2.72
  26  0.446  0.298  0.188-  45 2.52  70 2.53  60 2.53  66 2.57  78 2.58  46 2.60  10 2.63   1 2.65
                            75 2.66   9 2.70  39 2.70  22 2.72
  27  0.434  0.529  0.470-  28 2.46  69 2.47  37 2.54   3 2.56  62 2.56  41 2.59  18 2.59  52 2.63
                            24 2.71
  28  0.433  0.290  0.468-  37 2.44  27 2.46   3 2.54  69 2.56  47 2.63  21 2.64   2 2.64   6 2.67
                            15 2.72
  29  0.009  0.206  0.281-  35 2.55  76 2.55  71 2.56  51 2.58  50 2.61  20 2.62  17 2.63  73 2.65
                            19 2.75   9 2.75  75 2.76  16 2.77
  30  0.180  0.782  0.190-  42 2.51  61 2.53  79 2.54  64 2.57  22 2.60  57 2.60  43 2.62  31 2.64
                            59 2.67  58 2.72   7 2.72   1 2.77
  31  0.096  0.612  0.096-  25 2.59  61 2.59  64 2.60  49 2.62  30 2.64  68 2.64  58 2.68   7 2.74
                            11 2.74
  32  0.923  0.030  0.468-  40 2.50  14 2.51  52 2.54  73 2.56   5 2.57  23 2.58  21 2.63  17 2.70
                             3 2.71
  33  0.511  0.953  0.286-  38 2.50  43 2.52  10 2.55  80 2.56  53 2.60   1 2.62  20 2.63  42 2.63
                            35 2.64  48 2.68  59 2.72  34 2.78
  34  0.686  0.036  0.186-   1 2.48  19 2.53  76 2.58  78 2.59  59 2.60  12 2.61  65 2.61  77 2.62
                            54 2.66  20 2.68  35 2.70  33 2.78
  35  0.763  0.207  0.282-  67 2.38  55 2.48  78 2.49  10 2.53  80 2.55  29 2.55  51 2.60  76 2.62
                            33 2.64  73 2.64  20 2.67  34 2.70
  36  0.103  0.116  0.089-  58 2.49  68 2.52  46 2.54  39 2.56  72 2.60  22 2.62  12 2.65   9 2.69
                            19 2.72
  37  0.375  0.377  0.377-  15 2.44  28 2.44  66 2.49  24 2.51  27 2.54  18 2.55   6 2.56  75 2.72
                            50 2.72  17 2.74   3 2.77  71 2.86
  38  0.349  0.862  0.374-  33 2.50  43 2.52  53 2.58  18 2.60  44 2.62   6 2.62  42 2.63   4 2.64
                             2 2.70  74 2.70  80 2.70  62 2.72
  39  0.355  0.125  0.092-  46 2.45  70 2.48  54 2.52  36 2.56  22 2.61   7 2.62   1 2.70  26 2.70
                            58 2.77
  40  0.683  0.035  0.467-  32 2.50  80 2.50  53 2.51  14 2.51  73 2.53  47 2.53   2 2.54  62 2.54
                            52 2.63
  41  0.182  0.527  0.469-   3 2.50  27 2.59  13 2.62  71 2.65  14 2.65  44 2.66  18 2.67  62 2.73
                             4 2.79
  42  0.261  0.698  0.279-  61 2.51  30 2.51  43 2.52  79 2.52   4 2.55  51 2.57  50 2.61  38 2.63
                            33 2.63  48 2.64  59 2.64  18 2.73
  43  0.262  0.943  0.285-  16 2.50  33 2.52  42 2.52  38 2.52   6 2.58  79 2.59  75 2.60  74 2.61
                            30 2.62  10 2.67  22 2.75   1 2.79
  44  0.182  0.784  0.467-   5 2.60  21 2.60  74 2.61  38 2.62  13 2.64   2 2.65  41 2.66  62 2.75
                             4 2.75
  45  0.447  0.542  0.187-  65 2.43  11 2.49  60 2.50  26 2.52  59 2.52  48 2.55  56 2.60   9 2.67
                            66 2.68  61 2.68  50 2.70  46 2.73
  46  0.348  0.359  0.093-  39 2.45  11 2.51  70 2.51  68 2.54  36 2.54   9 2.55  26 2.60  56 2.70
                            45 2.73
  47  0.682  0.280  0.467-  14 2.53  40 2.53   2 2.55  80 2.56  13 2.58  28 2.63  15 2.63  55 2.65
                            69 2.67
  48  0.516  0.696  0.280-  45 2.55  59 2.57  50 2.59  20 2.61  66 2.61  18 2.62  65 2.62   8 2.63
                            42 2.64  24 2.65  33 2.68  53 2.75
  49  0.849  0.627  0.096-  57 2.39  56 2.42  72 2.43  60 2.45  58 2.47  31 2.62  64 2.64  25 2.65
                            70 2.71
  50  0.267  0.448  0.281-  75 2.59  48 2.59  66 2.60  61 2.60  29 2.61  42 2.61  71 2.63  18 2.64
                             9 2.66  51 2.69  45 2.70  37 2.72
  51  0.011  0.456  0.277-  67 2.42  79 2.44  64 2.44  76 2.53   4 2.53  61 2.54  42 2.57  29 2.58
                            35 2.60  55 2.64  71 2.69  50 2.69
  52  0.685  0.782  0.467-  62 2.47  69 2.48   5 2.51  32 2.54  23 2.55  24 2.55  53 2.56  40 2.63
                            27 2.63
  53  0.604  0.874  0.378-  80 2.50  40 2.51  73 2.55  52 2.56  62 2.56  38 2.58  20 2.60  23 2.60
                            33 2.60  24 2.64  18 2.64  48 2.75
  54  0.599  0.125  0.092-  70 2.48  39 2.52  25 2.55   7 2.56   1 2.59  12 2.60  34 2.66  78 2.73
                            77 2.74
  55  0.847  0.360  0.372-  73 2.46  35 2.48  80 2.49  71 2.50  67 2.51  15 2.52   4 2.60  63 2.61
                            51 2.64  47 2.65  14 2.67  13 2.68
  56  0.609  0.615  0.094-  49 2.42  60 2.42  70 2.53  11 2.54  65 2.56  77 2.57  72 2.59  45 2.60
                            46 2.70
  57  0.923  0.770  0.183-  49 2.39  60 2.41  64 2.46  58 2.51  72 2.52  65 2.59  30 2.60   8 2.62
                            19 2.63  79 2.65  16 2.73  22 2.76
  58  0.083  0.866  0.094-  72 2.35  49 2.47  36 2.49  57 2.51  22 2.57  31 2.68  30 2.72  39 2.77
                             7 2.82
  59  0.440  0.783  0.188-  65 2.47  45 2.52  48 2.57  77 2.59  34 2.60   7 2.61  61 2.61   1 2.63
                            11 2.64  42 2.64  30 2.67  33 2.72
  60  0.688  0.542  0.182-  57 2.41  56 2.42  49 2.45  45 2.50  65 2.50  26 2.53  64 2.56   8 2.57
                            70 2.59  78 2.63  67 2.79  66 2.81
  61  0.185  0.538  0.190-  42 2.51   9 2.52  30 2.53  51 2.54  64 2.59  31 2.59  50 2.60  59 2.61
                            76 2.64  11 2.67  45 2.68  68 2.82
  62  0.448  0.784  0.471-  52 2.47  40 2.54  53 2.56  27 2.56   2 2.66  18 2.66  38 2.72  41 2.73
                            44 2.75
  63  0.845  0.612  0.374-  24 2.46  15 2.50  74 2.53   4 2.56   8 2.56  23 2.56  13 2.61  55 2.61
                            67 2.63  69 2.64   5 2.66  79 2.66
  64  0.933  0.536  0.189-  51 2.44  57 2.46  79 2.51  78 2.55  60 2.56  76 2.56  30 2.57  67 2.58
                            61 2.59  31 2.60  25 2.60  49 2.64
  65  0.676  0.778  0.185-  45 2.43  59 2.47  77 2.49  60 2.50  56 2.56  57 2.59  19 2.59  34 2.61
                            48 2.62  72 2.65   8 2.69  20 2.74
  66  0.516  0.443  0.284-  10 2.47  15 2.48  37 2.49  75 2.53   8 2.56  26 2.57  50 2.60  48 2.61
                            67 2.62  24 2.65  45 2.68  60 2.81
  67  0.769  0.441  0.281-  35 2.38  51 2.42  78 2.47  55 2.51  15 2.53   8 2.53  10 2.56  64 2.58
                            79 2.61  66 2.62  63 2.63  60 2.79
  68  0.103  0.361  0.089-   9 2.52  36 2.52  46 2.54  12 2.62  11 2.62  31 2.64  25 2.72  76 2.79
                            61 2.82
  69  0.677  0.537  0.468-  27 2.47  52 2.48  24 2.50  28 2.56   5 2.60  63 2.64  13 2.64  47 2.67
                            15 2.68
  70  0.593  0.362  0.094-  39 2.48  54 2.48  46 2.51  26 2.53  56 2.53  25 2.56  60 2.59  78 2.70
                            49 2.71
  71  0.093  0.366  0.373-  55 2.50  17 2.54   4 2.54  29 2.56  73 2.57  50 2.63  41 2.65  18 2.67
                            51 2.69  14 2.69   3 2.73  37 2.86
  72  0.855  0.865  0.093-  58 2.35  49 2.43  57 2.52  19 2.55  77 2.58  56 2.59  36 2.60  12 2.63
                            65 2.65
  73  0.846  0.121  0.377-  80 2.42  55 2.46  40 2.53  14 2.54  53 2.55  32 2.56  71 2.57  17 2.62
                            35 2.64  20 2.65  29 2.65  23 2.68
  74  0.085  0.858  0.374-  23 2.45  16 2.51  63 2.53   5 2.58   4 2.58  43 2.61  44 2.61  79 2.63
                            17 2.67  38 2.70  21 2.74   6 2.79
  75  0.274  0.200  0.282-  10 2.48  66 2.53   6 2.54  50 2.59  43 2.60  17 2.64  26 2.66  16 2.67
                            22 2.69  37 2.72  29 2.76   9 2.79
  76  0.929  0.286  0.189-  78 2.46  51 2.53  29 2.55  64 2.56  25 2.56  34 2.58   9 2.59  35 2.62
                            61 2.64  19 2.68  12 2.71  68 2.79
  77  0.603  0.861  0.095-  65 2.49  56 2.57   7 2.57  72 2.58  59 2.59  11 2.59  12 2.60  34 2.62
                            54 2.74
  78  0.691  0.289  0.192-  76 2.46  67 2.47  35 2.49   1 2.55  64 2.55  25 2.56  26 2.58  34 2.59
                            10 2.63  60 2.63  70 2.70  54 2.73
  79  0.015  0.695  0.279-  51 2.44   4 2.48  64 2.51  42 2.52   8 2.53  16 2.53  30 2.54  43 2.59
                            67 2.61  74 2.63  57 2.65  63 2.66
  80  0.611  0.119  0.376-  73 2.42  55 2.49  53 2.50  40 2.50  35 2.55  33 2.56  47 2.56  15 2.61
                             6 2.62  10 2.65   2 2.66  38 2.70
 
  LATTYP: Found a triclinic cell.
 ALAT       =    10.3145465828
 B/A-ratio  =     2.8086032564
 C/A-ratio  =     1.0107091543
 COS(alpha) =     0.0004111030
 COS(beta)  =     0.5051137480
 COS(gamma) =     0.5269719846
  
  Lattice vectors:
  
 A1 = (  -0.0607125151, -10.3143169824,  -0.0324096779)
 A2 = (   8.8965649940, -15.3906797080,  22.8737458803)
 A3 = (  -9.0281333623,  -5.2128191628,   0.0093863533)


Analysis of symmetry for initial positions (statically):
=====================================================================
 Subroutine PRICEL returns:
 Original cell was already a primitive cell.
 

 Routine SETGRP: Setting up the symmetry group for a 
 triclinic supercell.


 Subroutine GETGRP returns: Found  1 space group operations
 (whereof  1 operations were pure point group operations)
 out of a pool of  2 trial point group operations.


The static configuration has the point symmetry C_1 .


Analysis of symmetry for dynamics (positions and initial velocities):
=====================================================================
 Subroutine PRICEL returns:
 Original cell was already a primitive cell.
 

 Routine SETGRP: Setting up the symmetry group for a 
 triclinic supercell.


 Subroutine GETGRP returns: Found  1 space group operations
 (whereof  1 operations were pure point group operations)
 out of a pool of  2 trial point group operations.


The dynamic configuration has the point symmetry C_1 .


Analysis of constrained symmetry for selective dynamics:
=====================================================================
 Subroutine PRICEL returns:
 Original cell was already a primitive cell.
 

 Routine SETGRP: Setting up the symmetry group for a 
 triclinic supercell.


 Subroutine GETGRP returns: Found  1 space group operations
 (whereof  1 operations were pure point group operations)
 out of a pool of  2 trial point group operations.


The constrained configuration has the point symmetry C_1 .


Analysis of structural, dynamic, and magnetic symmetry:
=====================================================================
 Subroutine PRICEL returns:
 Original cell was already a primitive cell.
 

 Routine SETGRP: Setting up the symmetry group for a 
 triclinic supercell.


 Subroutine GETGRP returns: Found  1 space group operations
 (whereof  1 operations were pure point group operations)
 out of a pool of  2 trial point group operations.


The magnetic configuration has the point symmetry C_1 .


 Subroutine INISYM returns: Found  1 space group operations
 (whereof  1 operations are pure point group operations),
 and found     1 'primitive' translations

 
 
 KPOINTS: Automatic mesh                          

Automatic generation of k-mesh.
Space group operators:
 irot       det(A)        alpha          n_x          n_y          n_z        tau_x        tau_y        tau_z
    1     1.000000     0.000001     1.000000     0.000000     0.000000     0.000000     0.000000     0.000000
 
 Subroutine IBZKPT returns following result:
 ===========================================
 
 Found      1 irreducible k-points:
 
 Following reciprocal coordinates:
            Coordinates               Weight
  0.000000  0.000000  0.000000      1.000000
 
 Following cartesian coordinates:
            Coordinates               Weight
  0.000000  0.000000  0.000000      1.000000
 


--------------------------------------------------------------------------------------------------------




 Dimension of arrays:
   k-points           NKPTS =      1   k-points in BZ     NKDIM =      1   number of bands    NBANDS=    524
   number of dos      NEDOS =    301   number of ions     NIONS =     80
   non local maximal  LDIM  =      6   non local SUM 2l+1 LMDIM =     18
   total plane-waves  NPLWV = ******
   max r-space proj   IRMAX =   7456   max aug-charges    IRDMAX=  30775
   dimension x,y,z NGX =    80 NGY =   80 NGZ =  168
   dimension x,y,z NGXF=   160 NGYF=  160 NGZF=  336
   support grid    NGXF=   160 NGYF=  160 NGZF=  336
   ions per type =              16  16  17  17  14
   NGX,Y,Z   is equivalent  to a cutoff of  12.89, 12.89, 12.17 a.u.
   NGXF,Y,Z  is equivalent  to a cutoff of  25.78, 25.79, 24.34 a.u.

 SYSTEM =  ML                                      
 POSCAR =  Pt   Pd   Ni   Co   Fe                  

 Startparameter for this run:
   NWRITE =      2    write-flag & timer
   PREC   = accura    normal or accurate (medium, high low for compatibility)
   ISTART =      0    job   : 0-new  1-cont  2-samecut
   ICHARG =      2    charge: 1-file 2-atom 10-const
   ISPIN  =      2    spin polarized calculation?
   LNONCOLLINEAR =      F non collinear calculations
   LSORBIT =      F    spin-orbit coupling
   INIWAV =      1    electr: 0-lowe 1-rand  2-diag
   LASPH  =      F    aspherical Exc in radial PAW
   METAGGA=      F    non-selfconsistent MetaGGA calc.

 Electronic Relaxation 1
   ENCUT  =  500.0 eV  36.75 Ry    6.06 a.u.  18.81 18.81 41.84*2*pi/ulx,y,z
   ENINI  =  500.0     initial cutoff
   ENAUG  =  544.6 eV  augmentation charge cutoff
   NELM   =    300;   NELMIN=  4; NELMDL= -5     # of ELM steps 
   EDIFF  = 0.1E-05   stopping-criterion for ELM
   LREAL  =      T    real-space projection
   NLSPLINE    = F    spline interpolate recip. space projectors
   LCOMPAT=      F    compatible to vasp.4.4
   GGA_COMPAT  = T    GGA compatible to vasp.4.4-vasp.4.6
   LMAXPAW     = -100 max onsite density
   LMAXMIX     =    2 max onsite mixed and CHGCAR
   VOSKOWN=      0    Vosko Wilk Nusair interpolation
   ROPT   =   -0.00025  -0.00025  -0.00025  -0.00025
   ROPT   =   -0.00025
 Ionic relaxation
   EDIFFG = -.5E-01   stopping-criterion for IOM
   NSW    =    300    number of steps for IOM
   NBLOCK =      1;   KBLOCK =    300    inner block; outer block 
   IBRION =      2    ionic relax: 0-MD 1-quasi-New 2-CG
   NFREE  =      1    steps in history (QN), initial steepest desc. (CG)
   ISIF   =      2    stress and relaxation
   IWAVPR =     11    prediction:  0-non 1-charg 2-wave 3-comb
   ISYM   =      2    0-nonsym 1-usesym 2-fastsym
   LCORR  =      T    Harris-Foulkes like correction to forces

   POTIM  = 0.5000    time-step for ionic-motion
   TEIN   =    0.0    initial temperature
   TEBEG  =    0.0;   TEEND  =   0.0 temperature during run
   SMASS  =  -3.00    Nose mass-parameter (am)
   estimated Nose-frequenzy (Omega)   =  0.10E-29 period in steps =****** mass=  -0.243E-26a.u.
   SCALEE = 1.0000    scale energy and forces
   NPACO  =    256;   APACO  = 16.0  distance and # of slots for P.C.
   PSTRESS=    0.0 pullay stress

  Mass of Ions in am
   POMASS = 195.08106.42 58.69 58.93 55.85
  Ionic Valenz
   ZVAL   =  10.00 10.00 10.00  9.00  8.00
  Atomic Wigner-Seitz radii
   RWIGS  =  -1.00 -1.00 -1.00 -1.00 -1.00
  virtual crystal weights 
   VCA    =   1.00  1.00  1.00  1.00  1.00
   NELECT =     755.0000    total number of electrons
   NUPDOWN=      -1.0000    fix difference up-down

 DOS related values:
   EMIN   =  10.00;   EMAX   =-10.00  energy-range for DOS
   EFERMI =   0.00
   ISMEAR =     1;   SIGMA  =   0.10  broadening in eV -4-tet -1-fermi 0-gaus

 Electronic relaxation 2 (details)
   IALGO  =     68    algorithm
   LDIAG  =      T    sub-space diagonalisation (order eigenvalues)
   LSUBROT=      F    optimize rotation matrix (better conditioning)
   TURBO    =      0    0=normal 1=particle mesh
   IRESTART =      0    0=no restart 2=restart with 2 vectors
   NREBOOT  =      0    no. of reboots
   NMIN     =      0    reboot dimension
   EREF     =   0.00    reference energy to select bands
   IMIX   =      4    mixing-type and parameters
     AMIX     =   0.40;   BMIX     =  1.00
     AMIX_MAG =   1.60;   BMIX_MAG =  1.00
     AMIN     =   0.10
     WC   =   100.;   INIMIX=   1;  MIXPRE=   1;  MAXMIX= -45

 Intra band minimization:
   WEIMIN = 0.0010     energy-eigenvalue tresh-hold
   EBREAK =  0.48E-09  absolut break condition
   DEPER  =   0.30     relativ break condition  

   TIME   =   0.40     timestep for ELM

  volume/ion in A,a.u.               =      26.62       179.64
  Fermi-wavevector in a.u.,A,eV,Ry     =   1.158661  2.189553 18.265772  1.342496
  Thomas-Fermi vector in A             =   2.295262
 
 Write flags
   LWAVE        =      F    write WAVECAR
   LDOWNSAMPLE  =      F    k-point downsampling of WAVECAR
   LCHARG       =      F    write CHGCAR
   LVTOT        =      F    write LOCPOT, total local potential
   LVHAR        =      F    write LOCPOT, Hartree potential only
   LELF         =      F    write electronic localiz. function (ELF)
   LORBIT       =     11    0 simple, 1 ext, 2 COOP (PROOUT), +10 PAW based schemes


 Dipole corrections
   LMONO  =      F    monopole corrections only (constant potential shift)
   LDIPOL =      F    correct potential (dipole corrections)
   IDIPOL =      0    1-x, 2-y, 3-z, 4-all directions 
   EPSILON=  1.0000000 bulk dielectric constant

 Exchange correlation treatment:
   GGA     =    PE    GGA type
   LEXCH   =     8    internal setting for exchange type
   VOSKOWN=      0    Vosko Wilk Nusair interpolation
   LHFCALC =     F    Hartree Fock is set to
   LHFONE  =     F    Hartree Fock one center treatment
   AEXX    =    0.0000 exact exchange contribution

 Linear response parameters
   LEPSILON=     F    determine dielectric tensor
   LRPA    =     F    only Hartree local field effects (RPA)
   LNABLA  =     F    use nabla operator in PAW spheres
   LVEL    =     F    velocity operator in full k-point grid
   LINTERFAST=   F  fast interpolation
   KINTER  =     0    interpolate to denser k-point grid
   CSHIFT  =0.1000    complex shift for real part using Kramers Kronig
   OMEGAMAX=  -1.0    maximum frequency
   DEG_THRESHOLD= 0.2000000E-02 threshold for treating states as degnerate
   RTIME   =   -0.100 relaxation time in fs
  (WPLASMAI=    0.000 imaginary part of plasma frequency in eV, 0.658/RTIME)
   DFIELD  = 0.0000000 0.0000000 0.0000000 field for delta impulse in time
 
 Orbital magnetization related:
   ORBITALMAG=     F  switch on orbital magnetization
   LCHIMAG   =     F  perturbation theory with respect to B field
   DQ        =  0.001000  dq finite difference perturbation B field
   LLRAUG    =     F  two centre corrections for induced B field



--------------------------------------------------------------------------------------------------------


 conjugate gradient relaxation of ions
   using selective dynamics as specified on POSCAR
 charge density and potential will be updated during run
 spin polarized calculation
 RMM-DIIS sequential band-by-band and
  variant of blocked Davidson during initial phase
 perform sub-space diagonalisation
    before iterative eigenvector-optimisation
 modified Broyden-mixing scheme, WC =      100.0
 initial mixing is a Kerker type mixing with AMIX =  0.4000 and BMIX =      1.0000
 Hartree-type preconditioning will be used
 using additional bands          146
 real space projection scheme for non local part
 use partial core corrections
 calculate Harris-corrections to forces 
   (improved forces if not selfconsistent)
 use gradient corrections 
 use of overlap-Matrix (Vanderbilt PP)
 Methfessel and Paxton  Order N= 1 SIGMA  =   0.10


--------------------------------------------------------------------------------------------------------


  energy-cutoff  :      500.00
  volume of cell :     2129.62
      direct lattice vectors                 reciprocal lattice vectors
     8.967420847 -5.101497820 -0.041796031     0.111142751 -0.000654369  0.000049843
     0.060712515 10.314316982  0.032409678     0.054971295  0.096629297 -0.000081541
    -0.010143338  0.025135094 22.947951589     0.000124792 -0.000137663  0.043577080

  length of vectors
    10.317056923 10.314546583 22.947967596     0.111144688  0.111171359  0.043577476


 
 k-points in units of 2pi/SCALE and weight: Automatic mesh                          
   0.00000000  0.00000000  0.00000000       1.000
 
 k-points in reciprocal lattice and weights: Automatic mesh                          
   0.00000000  0.00000000  0.00000000       1.000
 
 position of ions in fractional coordinates (direct lattice) 
   0.44915326  0.04306611  0.18786188
   0.43795632  0.03678877  0.46932941
   0.18514539  0.28648108  0.47189327
   0.09273042  0.61226228  0.36825306
   0.92898566  0.78347442  0.46813431
   0.35758682  0.12066480  0.37258717
   0.35998808  0.87331294  0.09486589
   0.76511620  0.68430871  0.27910574
   0.18305632  0.29400085  0.18272713
   0.51564606  0.20259651  0.28301447
   0.35871727  0.60717005  0.09635633
   0.84661327  0.11568176  0.09147337
   0.92920456  0.52946480  0.46787002
   0.92501994  0.27473870  0.46982196
   0.60794464  0.36997129  0.37140340
   0.02030549  0.94263885  0.28107302
   0.10218724  0.12470150  0.37429674
   0.35693430  0.61406253  0.37587412
   0.92562986  0.02558538  0.18477826
   0.76400285  0.94876821  0.28373226
   0.18097757  0.03628924  0.47077980
   0.18649551  0.03625390  0.18392496
   0.85056071  0.86305778  0.37728611
   0.61216420  0.62200196  0.37535648
   0.84396037  0.36772675  0.09744167
   0.44624548  0.29809542  0.18769018
   0.43363450  0.52926990  0.46998456
   0.43260872  0.29008142  0.46792856
   0.00937789  0.20584705  0.28114736
   0.18035547  0.78159906  0.18988841
   0.09556519  0.61224082  0.09616877
   0.92290712  0.02995445  0.46830384
   0.51114881  0.95276769  0.28566982
   0.68550283  0.03563082  0.18596404
   0.76292593  0.20675597  0.28246757
   0.10309478  0.11603712  0.08880027
   0.37524900  0.37680157  0.37724858
   0.34885344  0.86231119  0.37393479
   0.35519268  0.12495710  0.09181458
   0.68303304  0.03507772  0.46680854
   0.18170953  0.52672751  0.46947120
   0.26133810  0.69825489  0.27908313
   0.26238139  0.94294849  0.28471990
   0.18168927  0.78427978  0.46694731
   0.44663017  0.54237686  0.18747580
   0.34800990  0.35872331  0.09273106
   0.68246715  0.28043040  0.46714719
   0.51617042  0.69599940  0.28044267
   0.84885460  0.62664638  0.09595015
   0.26723260  0.44796622  0.28134854
   0.01065936  0.45627313  0.27657459
   0.68515995  0.78155212  0.46718787
   0.60426379  0.87357804  0.37769737
   0.59908012  0.12469962  0.09177068
   0.84743687  0.36005025  0.37184514
   0.60889832  0.61477679  0.09423650
   0.92308742  0.76985008  0.18331721
   0.08347885  0.86606526  0.09423620
   0.43997944  0.78338190  0.18792949
   0.68799126  0.54184763  0.18203101
   0.18456641  0.53820270  0.18986537
   0.44773612  0.78427839  0.47056683
   0.84525969  0.61197612  0.37397556
   0.93275432  0.53634920  0.18936495
   0.67646813  0.77798441  0.18526733
   0.51612558  0.44267192  0.28403597
   0.76867373  0.44059421  0.28115644
   0.10331128  0.36087516  0.08875848
   0.67664845  0.53678078  0.46789449
   0.59323225  0.36184939  0.09391007
   0.09318741  0.36628427  0.37307319
   0.85527897  0.86524015  0.09348595
   0.84616275  0.12087861  0.37729441
   0.08483334  0.85768943  0.37418006
   0.27398666  0.20026881  0.28151863
   0.92896045  0.28644020  0.18882551
   0.60260239  0.86054373  0.09498618
   0.69143370  0.28899051  0.19150666
   0.01503023  0.69464704  0.27935475
   0.61089982  0.11862486  0.37562598
 
 position of ions in cartesian coordinates  (Angst):
   4.02845537 -1.84243492  4.29366816
   3.92481162 -1.84298555 10.75303613
   1.67288303  2.02219895 10.83053038
   0.86498939  5.85125929  8.46662094
   8.37342368  3.35355176 10.72928764
   3.21017813 -0.57028844  8.53907728
   3.28022335  7.17353259  2.19023551
   6.89983402  3.16195371  6.39510431
   1.65753913  2.10314936  4.19509078
   4.63344466 -0.53380898  6.47961657
   3.25265418  4.43497095  2.21586569
   7.59803300 -3.12351827  2.06749057
   8.35996772  0.73249265 10.71498123
   8.30695763 -1.87343616 10.75169361
   5.47039007  0.72390811  8.50952819
   0.23646681  9.62615227  6.47975192
   0.92013032  0.77431080  8.58911404
   3.23424878  4.52218367  8.63052418
   8.30019156 -4.45355854  4.20242404
   6.90585920  5.89546885  6.50989104
   1.62032996 -0.53712489 10.79704415
   1.67271921 -0.57284926  4.21408139
   7.67590727  4.57220107  8.65036465
   5.52348998  3.30200569  8.60823516
   7.58948505 -0.51016252  2.21273041
   4.01786532  0.80284797  4.29811498
   3.91594918  3.25868520 10.78421215
   3.89224971  0.79680063 10.72932205
   0.09374122  2.08239711  6.45803544
   1.66285013  7.14635026  4.37534336
   0.89316845  5.82973752  2.22272453
   8.27316501 -4.38747814 10.70901071
   4.63863375  7.22670374  6.56505215
   6.14746928 -3.12490934  4.23999718
   6.85116544 -1.75241853  6.45686584
   0.93063844  0.67313781  2.03723597
   3.38406575  1.98160100  8.65361016
   3.17687574  7.12387475  8.59440390
   3.19181736 -0.52085979  2.09616067
   6.12243943 -3.11095561 10.68488848
   1.65668281  4.51764394 10.78287859
   2.38309066  5.87582132  6.41609359
   2.40724514  8.39448800  6.55333265
   1.67216337  7.17415955 10.73330853
   4.03614810  3.32047630  4.30109644
   3.14158963  1.92694500  2.12506864
   6.13225732 -0.57741482 10.70063530
   4.66812867  4.55256507  6.43656806
   7.64910846  2.13541127  2.18669010
   2.42073056  3.26425078  6.45972192
   0.12048303  4.65871870  6.36116243
   6.18682877  4.57757714 10.71769742
   5.46789368  5.93720388  8.67043741
   5.37884349 -1.76770786  2.08495149
   7.61741085 -0.60017859  8.50933390
   5.49661629  3.23707787  2.15700983
   8.32259348  3.23595701  4.19312357
   0.80021514  8.50937306  2.18710761
   3.99113567  5.84021867  4.31959656
   6.20055769  2.08357770  4.16604461
   1.68583444  4.61440039  4.36675010
   4.05788063  5.81699885 10.80524946
   7.61316059  2.00942516  8.56647849
   8.39504289  0.77839123  4.32393524
   6.11152854  4.57803388  4.24844621
   4.65230990  1.93998431  6.51081861
   6.91691852  0.63010787  6.43411635
   0.94744502  3.19736949  2.04420311
   6.09563470  2.09636711 10.72633578
   5.34077944  0.70821676  2.14197648
   0.85410457  3.31195387  8.56924182
   7.72122914  4.56350708  2.13760605
   7.59140931 -3.06043384  8.62668526
   0.80901330  8.42310864  8.61091761
   2.46625701  0.67496964  6.45531502
   8.34585451 -1.77990857  4.30361521
   5.45507155  5.80413346  2.18244179
   6.21597983 -0.54179422  4.37515257
   0.17412256  7.09515471  6.43250433
   5.48158770 -1.88352827  8.59815830
 


--------------------------------------------------------------------------------------------------------


 k-point  1 :   0.0000 0.0000 0.0000  plane waves:   53997

 maximum and minimum number of plane-waves per node :      6754     6748

 maximum number of plane-waves:     53997
 maximum index in each direction: 
   IXMAX=   18   IYMAX=   18   IZMAX=   41
   IXMIN=  -18   IYMIN=  -18   IZMIN=  -41


 real space projection operators:
  total allocation   :      75226.92 KBytes
  max/ min on nodes  :       9422.44       9376.59


 parallel 3D FFT for wavefunctions:
    minimum data exchange during FFTs selected (reduces bandwidth)
 parallel 3D FFT for charge:
    minimum data exchange during FFTs selected (reduces bandwidth)


 total amount of memory used by VASP MPI-rank0   133082. kBytes
=======================================================================

   base      :      30000. kBytes
   nonlr-proj:      21729. kBytes
   fftplans  :      13111. kBytes
   grid      :      38873. kBytes
   one-center:        311. kBytes
   wavefun   :      29058. kBytes
 
     INWAV:  cpu time    0.0000: real time    0.0000
 Broyden mixing: mesh for mixing (old mesh)
   NGX = 37   NGY = 37   NGZ = 83
  (NGX  =160   NGY  =160   NGZ  =336)
  gives a total of 113627 points

 initial charge density was supplied:
 charge density of overlapping atoms calculated
 number of electron     755.0000000 magnetization     140.5000000
 keeping initial charge density in first step


--------------------------------------------------------------------------------------------------------


 Maximum index for non-local projection operator          923
 Maximum index for augmentation-charges         1031 (set IRDMAX)


--------------------------------------------------------------------------------------------------------


 First call to EWALD:  gamma=   0.138
 Maximum number of real-space cells 4x 4x 2
 Maximum number of reciprocal cells 2x 2x 5

    FEWALD:  cpu time    0.0094: real time    0.0094


--------------------------------------- Iteration      1(   1)  ---------------------------------------


    POTLOK:  cpu time    0.5310: real time    0.5358
    SETDIJ:  cpu time    0.0318: real time    0.0320
     EDDAV:  cpu time   23.1062: real time   23.2838
       DOS:  cpu time    0.0013: real time    0.0013
    --------------------------------------------
      LOOP:  cpu time   23.6703: real time   23.8530

 eigenvalue-minimisations  :  2096
 total energy-change (2. order) : 0.6760690E+04  (-0.3156679E+05)
 number of electron     755.0000000 magnetization     140.5000000
 augmentation part      755.0000000 magnetization     140.5000000

 Free energy of the ion-electron system (eV)
  ---------------------------------------------------
  alpha Z        PSCENC =      1928.71720832
  Ewald energy   TEWEN  =    244887.52532926
  -Hartree energ DENC   =   -311946.61663135
  -exchange      EXHF   =         0.00000000
  -V(xc)+E(xc)   XCENC  =       494.88530004
  PAW double counting   =     60403.48551875   -61100.72612164
  entropy T*S    EENTRO =         0.01607685
  eigenvalues    EBANDS =      7003.64075491
  atomic energy  EATOM  =     65089.76223306
  Solvation  Ediel_sol  =         0.00000000
  ---------------------------------------------------
  free energy    TOTEN  =      6760.68966820 eV

  energy without entropy =     6760.67359135  energy(sigma->0) =     6760.68430925


--------------------------------------------------------------------------------------------------------




--------------------------------------- Iteration      1(   2)  ---------------------------------------


     EDDAV:  cpu time   23.0061: real time   23.1820
       DOS:  cpu time    0.0012: real time    0.0012
    --------------------------------------------
      LOOP:  cpu time   23.0073: real time   23.1832

 eigenvalue-minimisations  :  2096
 total energy-change (2. order) :-0.6372358E+04  (-0.5820171E+04)
 number of electron     755.0000000 magnetization     140.5000000
 augmentation part      755.0000000 magnetization     140.5000000

 Free energy of the ion-electron system (eV)
  ---------------------------------------------------
  alpha Z        PSCENC =      1928.71720832
  Ewald energy   TEWEN  =    244887.52532926
  -Hartree energ DENC   =   -311946.61663135
  -exchange      EXHF   =         0.00000000
  -V(xc)+E(xc)   XCENC  =       494.88530004
  PAW double counting   =     60403.48551875   -61100.72612164
  entropy T*S    EENTRO =        -0.01030152
  eigenvalues    EBANDS =       631.30932673
  atomic energy  EATOM  =     65089.76223306
  Solvation  Ediel_sol  =         0.00000000
  ---------------------------------------------------
  free energy    TOTEN  =       388.33186165 eV

  energy without entropy =      388.34216317  energy(sigma->0) =      388.33529549


--------------------------------------------------------------------------------------------------------




--------------------------------------- Iteration      1(   3)  ---------------------------------------


     EDDAV:  cpu time   24.5331: real time   24.7211
       DOS:  cpu time    0.0011: real time    0.0011
    --------------------------------------------
      LOOP:  cpu time   24.5343: real time   24.7222

 eigenvalue-minimisations  :  2268
 total energy-change (2. order) :-0.8640553E+03  (-0.7076537E+03)
 number of electron     755.0000000 magnetization     140.5000000
 augmentation part      755.0000000 magnetization     140.5000000

 Free energy of the ion-electron system (eV)
  ---------------------------------------------------
  alpha Z        PSCENC =      1928.71720832
  Ewald energy   TEWEN  =    244887.52532926
  -Hartree energ DENC   =   -311946.61663135
  -exchange      EXHF   =         0.00000000
  -V(xc)+E(xc)   XCENC  =       494.88530004
  PAW double counting   =     60403.48551875   -61100.72612164
  entropy T*S    EENTRO =        -0.02284535
  eigenvalues    EBANDS =      -232.73344954
  atomic energy  EATOM  =     65089.76223306
  Solvation  Ediel_sol  =         0.00000000
  ---------------------------------------------------
  free energy    TOTEN  =      -475.72345845 eV

  energy without entropy =     -475.70061310  energy(sigma->0) =     -475.71584333


--------------------------------------------------------------------------------------------------------




--------------------------------------- Iteration      1(   4)  ---------------------------------------


     EDDAV:  cpu time   25.1960: real time   25.3886
       DOS:  cpu time    0.0013: real time    0.0013
    --------------------------------------------
      LOOP:  cpu time   25.1973: real time   25.3899

 eigenvalue-minimisations  :  2336
 total energy-change (2. order) :-0.7064100E+02  (-0.6679510E+02)
 number of electron     755.0000000 magnetization     140.5000000
 augmentation part      755.0000000 magnetization     140.5000000

 Free energy of the ion-electron system (eV)
  ---------------------------------------------------
  alpha Z        PSCENC =      1928.71720832
  Ewald energy   TEWEN  =    244887.52532926
  -Hartree energ DENC   =   -311946.61663135
  -exchange      EXHF   =         0.00000000
  -V(xc)+E(xc)   XCENC  =       494.88530004
  PAW double counting   =     60403.48551875   -61100.72612164
  entropy T*S    EENTRO =        -0.01507070
  eigenvalues    EBANDS =      -303.38222544
  atomic energy  EATOM  =     65089.76223306
  Solvation  Ediel_sol  =         0.00000000
  ---------------------------------------------------
  free energy    TOTEN  =      -546.36445969 eV

  energy without entropy =     -546.34938900  energy(sigma->0) =     -546.35943613


--------------------------------------------------------------------------------------------------------




--------------------------------------- Iteration      1(   5)  ---------------------------------------


     EDDAV:  cpu time   25.7251: real time   25.9230
       DOS:  cpu time    0.0013: real time    0.0013
    CHARGE:  cpu time    0.6293: real time    0.6330
    MIXING:  cpu time    0.0175: real time    0.0179
    --------------------------------------------
      LOOP:  cpu time   26.3733: real time   26.5752

 eigenvalue-minimisations  :  2400
 total energy-change (2. order) :-0.1817412E+01  (-0.1809693E+01)
 number of electron     755.0000067 magnetization     135.6227228
 augmentation part      335.2331032 magnetization     109.2278777

 Broyden mixing:
  rms(total) = 0.10052E+02    rms(broyden)= 0.10052E+02
  rms(prec ) = 0.10363E+02
  weight for this iteration     100.00

 Free energy of the ion-electron system (eV)
  ---------------------------------------------------
  alpha Z        PSCENC =      1928.71720832
  Ewald energy   TEWEN  =    244887.52532926
  -Hartree energ DENC   =   -311946.61663135
  -exchange      EXHF   =         0.00000000
  -V(xc)+E(xc)   XCENC  =       494.88530004
  PAW double counting   =     60403.48551875   -61100.72612164
  entropy T*S    EENTRO =        -0.01624224
  eigenvalues    EBANDS =      -305.19846578
  atomic energy  EATOM  =     65089.76223306
  Solvation  Ediel_sol  =         0.00000000
  ---------------------------------------------------
  free energy    TOTEN  =      -548.18187158 eV

  energy without entropy =     -548.16562934  energy(sigma->0) =     -548.17645750


--------------------------------------------------------------------------------------------------------




--------------------------------------- Iteration      1(   6)  ---------------------------------------


    POTLOK:  cpu time    0.5247: real time    0.5285
    SETDIJ:  cpu time    0.0319: real time    0.0321
    EDDIAG:  cpu time    3.4890: real time    3.5158
  RMM-DIIS:  cpu time   11.1861: real time   11.2612
    ORTHCH:  cpu time    1.0908: real time    1.0978
       DOS:  cpu time    0.0014: real time    0.0013
    CHARGE:  cpu time    0.6444: real time    0.6484
    MIXING:  cpu time    0.0164: real time    0.0167
    --------------------------------------------
      LOOP:  cpu time   16.9848: real time   17.1019

 eigenvalue-minimisations  :  2098
 total energy-change (2. order) :-0.1540868E+03  (-0.8969535E+02)
 number of electron     755.0000090 magnetization     133.0650395
 augmentation part      392.0478434 magnetization     117.9926524

 Broyden mixing:
  rms(total) = 0.18141E+02    rms(broyden)= 0.18141E+02
  rms(prec ) = 0.19803E+02
  weight for this iteration     100.00

 eigenvalues of (default mixing * dielectric matrix)
  average eigenvalue GAMMA=   0.2368
  0.2368

 Free energy of the ion-electron system (eV)
  ---------------------------------------------------
  alpha Z        PSCENC =      1928.71720832
  Ewald energy   TEWEN  =    244887.52532926
  -Hartree energ DENC   =   -311024.75916659
  -exchange      EXHF   =         0.00000000
  -V(xc)+E(xc)   XCENC  =       447.82542320
  PAW double counting   =     66006.86967777   -66529.12748193
  entropy T*S    EENTRO =        -0.00118042
  eigenvalues    EBANDS =     -1509.08069449
  atomic energy  EATOM  =     65089.76223306
  Solvation  Ediel_sol  =         0.00000000
  ---------------------------------------------------
  free energy    TOTEN  =      -702.26865183 eV

  energy without entropy =     -702.26747141  energy(sigma->0) =     -702.26825835


--------------------------------------------------------------------------------------------------------




--------------------------------------- Iteration      1(   7)  ---------------------------------------


    POTLOK:  cpu time    0.5294: real time    0.5334
    SETDIJ:  cpu time    0.0330: real time    0.0332
    EDDIAG:  cpu time    3.5693: real time    3.5965
  RMM-DIIS:  cpu time   11.2049: real time   11.2820
    ORTHCH:  cpu time    1.0300: real time    1.0361
       DOS:  cpu time    0.0012: real time    0.0012
    CHARGE:  cpu time    0.6176: real time    0.6211
    MIXING:  cpu time    0.0169: real time    0.0170
    --------------------------------------------
      LOOP:  cpu time   17.0022: real time   17.1206

 eigenvalue-minimisations  :  2099
 total energy-change (2. order) : 0.1524893E+03  (-0.2365619E+02)
 number of electron     755.0000084 magnetization     130.9608490
 augmentation part      367.1334767 magnetization     108.6985761

 Broyden mixing:
  rms(total) = 0.11504E+02    rms(broyden)= 0.11504E+02
  rms(prec ) = 0.15288E+02
  weight for this iteration     100.00

 eigenvalues of (default mixing * dielectric matrix)
  average eigenvalue GAMMA=   0.2691
  0.3064  0.2317

 Free energy of the ion-electron system (eV)
  ---------------------------------------------------
  alpha Z        PSCENC =      1928.71720832
  Ewald energy   TEWEN  =    244887.52532926
  -Hartree energ DENC   =   -311081.89510099
  -exchange      EXHF   =         0.00000000
  -V(xc)+E(xc)   XCENC  =       454.18327263
  PAW double counting   =     67285.55057611   -67972.39962225
  entropy T*S    EENTRO =         0.00706420
  eigenvalues    EBANDS =     -1141.23034300
  atomic energy  EATOM  =     65089.76223306
  Solvation  Ediel_sol  =         0.00000000
  ---------------------------------------------------
  free energy    TOTEN  =      -549.77938266 eV

  energy without entropy =     -549.78644687  energy(sigma->0) =     -549.78173740


--------------------------------------------------------------------------------------------------------




--------------------------------------- Iteration      1(   8)  ---------------------------------------


    POTLOK:  cpu time    0.5214: real time    0.5252
    SETDIJ:  cpu time    0.0317: real time    0.0319
    EDDIAG:  cpu time    3.4893: real time    3.5159
  RMM-DIIS:  cpu time   11.1988: real time   11.2732
    ORTHCH:  cpu time    1.0362: real time    1.0424
       DOS:  cpu time    0.0014: real time    0.0014
    CHARGE:  cpu time    0.6504: real time    0.6543
    MIXING:  cpu time    0.0164: real time    0.0165
    --------------------------------------------
      LOOP:  cpu time   16.9457: real time   17.0609

 eigenvalue-minimisations  :  2099
 total energy-change (2. order) :-0.1521550E+03  (-0.1162936E+02)
 number of electron     755.0000058 magnetization     127.3081768
 augmentation part      358.5201214 magnetization     104.1908162

 Broyden mixing:
  rms(total) = 0.18156E+02    rms(broyden)= 0.18155E+02
  rms(prec ) = 0.25071E+02
  weight for this iteration     100.00

 eigenvalues of (default mixing * dielectric matrix)
  average eigenvalue GAMMA=   0.2673
  0.4342  0.2942  0.0735

 Free energy of the ion-electron system (eV)
  ---------------------------------------------------
  alpha Z        PSCENC =      1928.71720832
  Ewald energy   TEWEN  =    244887.52532926
  -Hartree energ DENC   =   -311297.42282899
  -exchange      EXHF   =         0.00000000
  -V(xc)+E(xc)   XCENC  =       457.39550706
  PAW double counting   =     68299.75043773   -69029.94184742
  entropy T*S    EENTRO =        -0.01827886
  eigenvalues    EBANDS =     -1037.70216652
  atomic energy  EATOM  =     65089.76223306
  Solvation  Ediel_sol  =         0.00000000
  ---------------------------------------------------
  free energy    TOTEN  =      -701.93440637 eV

  energy without entropy =     -701.91612752  energy(sigma->0) =     -701.92831342


--------------------------------------------------------------------------------------------------------




--------------------------------------- Iteration      1(   9)  ---------------------------------------


    POTLOK:  cpu time    0.5348: real time    0.5387
    SETDIJ:  cpu time    0.0327: real time    0.0329
    EDDIAG:  cpu time    3.5811: real time    3.6084
  RMM-DIIS:  cpu time   11.2065: real time   11.2834
    ORTHCH:  cpu time    1.0340: real time    1.0403
       DOS:  cpu time    0.0012: real time    0.0012
    CHARGE:  cpu time    0.6423: real time    0.6460
    MIXING:  cpu time    0.0169: real time    0.0170
    --------------------------------------------
      LOOP:  cpu time   17.0495: real time   17.1681

 eigenvalue-minimisations  :  2102
 total energy-change (2. order) : 0.7015026E+02  (-0.1291128E+02)
 number of electron     755.0000080 magnetization     124.1271817
 augmentation part      365.5702723 magnetization      95.6354530

 Broyden mixing:
  rms(total) = 0.15866E+02    rms(broyden)= 0.15866E+02
  rms(prec ) = 0.18327E+02
  weight for this iteration     100.00

 eigenvalues of (default mixing * dielectric matrix)
  average eigenvalue GAMMA=   0.2766
  0.5033  0.4087  0.1133  0.0813

 Free energy of the ion-electron system (eV)
  ---------------------------------------------------
  alpha Z        PSCENC =      1928.71720832
  Ewald energy   TEWEN  =    244887.52532926
  -Hartree energ DENC   =   -311409.30537978
  -exchange      EXHF   =         0.00000000
  -V(xc)+E(xc)   XCENC  =       461.59323203
  PAW double counting   =     69771.75047349   -70528.23408155
  entropy T*S    EENTRO =        -0.01551358
  eigenvalues    EBANDS =      -833.57765074
  atomic energy  EATOM  =     65089.76223306
  Solvation  Ediel_sol  =         0.00000000
  ---------------------------------------------------
  free energy    TOTEN  =      -631.78414949 eV

  energy without entropy =     -631.76863591  energy(sigma->0) =     -631.77897830


--------------------------------------------------------------------------------------------------------




--------------------------------------- Iteration      1(  10)  ---------------------------------------


    POTLOK:  cpu time    0.5187: real time    0.5226
    SETDIJ:  cpu time    0.0332: real time    0.0334
    EDDIAG:  cpu time    3.4926: real time    3.5190
  RMM-DIIS:  cpu time   11.2823: real time   11.3584
    ORTHCH:  cpu time    1.0702: real time    1.0768
       DOS:  cpu time    0.0013: real time    0.0013
    CHARGE:  cpu time    0.6496: real time    0.6537
    MIXING:  cpu time    0.0185: real time    0.0187
    --------------------------------------------
      LOOP:  cpu time   17.0664: real time   17.1838

 eigenvalue-minimisations  :  2109
 total energy-change (2. order) : 0.1358003E+03  (-0.1157877E+02)
 number of electron     755.0000081 magnetization     121.3762184
 augmentation part      375.9982075 magnetization      93.9457997

 Broyden mixing:
  rms(total) = 0.10047E+02    rms(broyden)= 0.10047E+02
  rms(prec ) = 0.12307E+02
  weight for this iteration     100.00

 eigenvalues of (default mixing * dielectric matrix)
  average eigenvalue GAMMA=   0.3191
  0.6050  0.6050  0.1888  0.1265  0.0700

 Free energy of the ion-electron system (eV)
  ---------------------------------------------------
  alpha Z        PSCENC =      1928.71720832
  Ewald energy   TEWEN  =    244887.52532926
  -Hartree energ DENC   =   -311184.50281751
  -exchange      EXHF   =         0.00000000
  -V(xc)+E(xc)   XCENC  =       467.06196994
  PAW double counting   =     70946.25375632   -71706.37714133
  entropy T*S    EENTRO =         0.01155076
  eigenvalues    EBANDS =      -924.43592509
  atomic energy  EATOM  =     65089.76223306
  Solvation  Ediel_sol  =         0.00000000
  ---------------------------------------------------
  free energy    TOTEN  =      -495.98383628 eV

  energy without entropy =     -495.99538704  energy(sigma->0) =     -495.98768653


--------------------------------------------------------------------------------------------------------




--------------------------------------- Iteration      1(  11)  ---------------------------------------


    POTLOK:  cpu time    0.5222: real time    0.5262
    SETDIJ:  cpu time    0.0345: real time    0.0347
    EDDIAG:  cpu time    3.5063: real time    3.5330
  RMM-DIIS:  cpu time   11.2106: real time   11.2880
    ORTHCH:  cpu time    1.0307: real time    1.0370
       DOS:  cpu time    0.0012: real time    0.0013
    CHARGE:  cpu time    0.6352: real time    0.6385
    MIXING:  cpu time    0.0198: real time    0.0199
    --------------------------------------------
      LOOP:  cpu time   16.9606: real time   17.0786

 eigenvalue-minimisations  :  2102
 total energy-change (2. order) : 0.1166235E+02  (-0.1025406E+02)
 number of electron     755.0000074 magnetization     118.1108331
 augmentation part      366.5269087 magnetization      91.3141563

 Broyden mixing:
  rms(total) = 0.11526E+02    rms(broyden)= 0.11526E+02
  rms(prec ) = 0.12899E+02
  weight for this iteration     100.00

 eigenvalues of (default mixing * dielectric matrix)
  average eigenvalue GAMMA=   0.3675
  1.0543  0.6091  0.2204  0.1262  0.1262  0.0690

 Free energy of the ion-electron system (eV)
  ---------------------------------------------------
  alpha Z        PSCENC =      1928.71720832
  Ewald energy   TEWEN  =    244887.52532926
  -Hartree energ DENC   =   -311422.63811812
  -exchange      EXHF   =         0.00000000
  -V(xc)+E(xc)   XCENC  =       471.47334638
  PAW double counting   =     71790.67711124   -72605.61942363
  entropy T*S    EENTRO =        -0.01686298
  eigenvalues    EBANDS =      -624.20231201
  atomic energy  EATOM  =     65089.76223306
  Solvation  Ediel_sol  =         0.00000000
  ---------------------------------------------------
  free energy    TOTEN  =      -484.32148848 eV

  energy without entropy =     -484.30462550  energy(sigma->0) =     -484.31586749


--------------------------------------------------------------------------------------------------------




--------------------------------------- Iteration      1(  12)  ---------------------------------------


    POTLOK:  cpu time    0.5230: real time    0.5269
    SETDIJ:  cpu time    0.0349: real time    0.0351
[...]
   0.203E+02 -.601E+02 0.150E+04   -.198E+02 0.597E+02 -.150E+04   -.436E+00 0.378E+00 -.554E+00   0.200E-01 -.246E-02 -.175E-01
   0.111E+00 0.868E+02 0.143E+04   0.295E+00 -.869E+02 -.143E+04   -.255E-01 -.110E+00 0.120E+00   -.295E-02 0.122E-01 -.135E-01
   0.640E+02 0.329E+02 0.146E+04   -.645E+02 -.331E+02 -.146E+04   0.359E+00 0.139E+00 -.856E+00   0.428E-02 0.444E-02 -.213E-01
   0.241E+02 0.475E+02 -.275E+04   -.237E+02 -.475E+02 0.275E+04   -.393E+00 -.217E-01 0.125E+01   -.559E-02 -.949E-02 0.110E-01
   0.167E+02 -.382E+02 -.133E+04   -.168E+02 0.378E+02 0.133E+04   0.688E-01 0.423E+00 0.904E+00   -.202E-02 -.325E-03 -.137E-01
   0.329E+02 0.340E+02 0.139E+04   -.334E+02 -.343E+02 -.139E+04   0.333E+00 0.123E+00 -.740E+00   -.126E-01 0.760E-02 -.148E-01
   -.800E+02 -.430E+02 0.146E+04   0.797E+02 0.430E+02 -.146E+04   0.121E+00 0.123E+00 0.276E-01   -.272E-02 -.160E-02 -.154E-01
   -.554E+02 0.101E+03 -.264E+02   0.548E+02 -.100E+03 0.265E+02   0.728E+00 -.564E+00 -.783E-01   0.173E-01 0.615E-02 -.256E-01
   0.415E+02 -.418E+02 0.152E+02   -.405E+02 0.416E+02 -.152E+02   -.958E+00 0.226E+00 0.498E-01   -.568E-02 0.561E-02 -.233E-01
   0.557E+02 -.630E+02 0.251E+04   -.554E+02 0.624E+02 -.251E+04   -.280E+00 0.664E+00 -.267E+01   -.337E-02 -.867E-02 -.566E-02
   -.874E+01 0.873E+01 -.244E+04   0.864E+01 -.872E+01 0.244E+04   0.749E-01 -.377E-01 0.218E+01   -.453E-02 -.693E-03 -.127E-03
   -.446E+02 0.780E+01 0.249E+04   0.444E+02 -.742E+01 -.248E+04   0.211E+00 -.694E-01 -.225E+01   -.425E-03 -.590E-02 0.423E-03
   0.197E+02 0.484E+02 -.123E+04   -.197E+02 -.482E+02 0.123E+04   0.638E-01 -.211E+00 0.637E+00   0.299E-02 0.871E-03 -.295E-02
   0.457E+02 -.675E+02 0.250E+04   -.458E+02 0.670E+02 -.250E+04   0.810E-01 0.392E+00 -.211E+01   -.162E-01 0.926E-02 0.742E-02
   -.829E+02 0.443E+02 -.122E+04   0.823E+02 -.439E+02 0.122E+04   0.707E+00 -.591E+00 0.525E+00   0.688E-03 0.597E-02 -.135E-01
   0.489E+02 -.605E+02 -.126E+04   -.486E+02 0.602E+02 0.125E+04   -.311E+00 0.316E+00 0.681E+00   -.306E-02 0.166E-02 -.145E-01
   0.477E+02 0.383E+02 0.758E+01   -.475E+02 -.377E+02 -.700E+01   -.305E+00 -.577E+00 -.638E+00   0.893E-02 -.273E-02 -.185E-01
   -.227E+02 0.176E+02 0.128E+04   0.227E+02 -.169E+02 -.128E+04   0.623E-01 -.586E+00 -.109E+01   -.127E-01 -.567E-02 -.192E-01
   -.423E+01 -.322E+02 0.251E+04   0.448E+01 0.316E+02 -.251E+04   -.203E+00 0.453E+00 -.232E+01   0.435E-02 0.418E-02 0.730E-02
   -.157E+00 -.286E+02 0.123E+04   0.105E+01 0.289E+02 -.123E+04   -.480E+00 -.183E+00 -.892E+00   -.413E-02 -.336E-02 -.225E-01
   0.446E+02 -.628E+02 0.282E+02   -.447E+02 0.622E+02 -.284E+02   0.146E+00 0.510E+00 0.248E+00   -.312E-02 0.425E-02 -.228E-01
   -.240E+02 -.782E+02 -.122E+04   0.243E+02 0.779E+02 0.122E+04   -.348E+00 0.326E+00 0.312E+00   0.128E-02 0.121E-01 -.143E-01
 -----------------------------------------------------------------------------------------------
   0.216E+01 -.346E+01 -.626E+01   -.234E-12 -.142E-13 -.705E-11   -.216E+01 0.343E+01 0.722E+01   -.820E-02 0.161E-01 -.981E+00
 
 
 POSITION                                       TOTAL-FORCE (eV/Angst)
 -----------------------------------------------------------------------------------
      4.02846     -1.84243      4.29367        -0.369680     -0.886679     -0.106094
      3.96102     -1.98673     10.81789         0.012625      0.004861     -0.006994
      1.69108      2.07123     10.82628         0.005140      0.013721      0.016869
      0.93435      5.88387      8.47454        -0.009216      0.020659     -0.033425
      8.36095      3.29391     10.81433        -0.006683     -0.018851      0.012086
      3.11838     -0.65020      8.58485        -0.006404      0.000337      0.007072
      3.28022      7.17353      2.19024        -0.032882     -0.011715     -0.859826
      6.82204      3.22629      6.34459        -0.007369     -0.022097     -0.006422
      1.65754      2.10315      4.19509         0.160064      0.140226      0.364268
      4.71414     -0.60273      6.46099        -0.015280     -0.006744     -0.009384
      3.25265      4.43497      2.21587        -0.086037      0.356474     -0.395281
      7.59803     -3.12352      2.06749        -0.204885     -0.231716     -0.431426
      8.34929      0.73419     10.70744         0.027252     -0.000982      0.012585
      8.32680     -1.82718     10.71693         0.008433      0.019790      0.015121
      5.52710      0.67645      8.60543         0.014379      0.015164     -0.002070
      0.24773      9.63362      6.46298         0.011400     -0.002098      0.014396
      0.87214      0.76559      8.63199        -0.001232     -0.003068     -0.001304
      3.18057      4.58976      8.49702         0.014371     -0.029328      0.007208
      8.30019     -4.45356      4.20242         0.023142      0.171748      0.274706
      6.79881      5.97083      6.43829         0.005691     -0.006679     -0.005351
      1.66124     -0.66562     10.94499         0.005172      0.001042      0.018235
      1.67272     -0.57285      4.21408        -0.099662      0.169889      0.054196
      7.61730      4.66019      8.61726         0.004203      0.009820      0.002502
      5.39805      3.30844      8.58382        -0.011881      0.015964      0.014637
      7.58949     -0.51016      2.21273        -0.218280      0.355310     -0.645114
      4.01787      0.80285      4.29811        -0.137902      0.238360     -0.196146
      3.96233      3.40676     10.89662         0.006505     -0.016924     -0.040791
      3.98409      0.71619     10.91660         0.022429      0.007332      0.011526
      0.18721      2.10667      6.46999        -0.000744      0.000956     -0.011096
      1.66285      7.14635      4.37534         0.003671     -0.194610      0.349013
      0.89317      5.82974      2.22272         0.177540      0.191838     -0.764671
      8.29488     -4.40943     10.93298         0.005084     -0.009026      0.003810
      4.57619      7.11412      6.48783         0.006607      0.015876      0.007546
      6.14747     -3.12491      4.24000        -0.009440      0.032209     -0.074148
      6.94421     -1.79409      6.40974        -0.002279      0.013957     -0.011134
      0.93064      0.67314      2.03724         0.164824     -0.075336      0.184246
      3.11688      2.00231      8.51152        -0.003634      0.008889      0.003474
      3.20594      7.12698      8.56242        -0.013930      0.003853     -0.016410
      3.19182     -0.52086      2.09616        -0.117871     -0.179067      0.097095
      6.10724     -3.18880     10.66360         0.001853     -0.013262     -0.029468
      1.67401      4.62609     10.73835         0.001183      0.002985     -0.035533
      2.42994      5.82101      6.37766         0.032918      0.028442     -0.014682
      2.42184      8.35461      6.54091        -0.020723      0.024784     -0.016258
      1.73586      7.07692     10.69784         0.005162     -0.007916     -0.026506
      4.03615      3.32048      4.30110        -0.201351      0.208328      0.598997
      3.14159      1.92694      2.12507         0.338622      0.014516     -0.111409
      6.14830     -0.60868     10.72646         0.012576     -0.008749      0.004200
      4.59440      4.59783      6.33408         0.003229      0.012243     -0.004823
      7.64911      2.13541      2.18669        -0.105912     -0.196927      0.088731
      2.48246      3.31358      6.32990         0.026922     -0.005402      0.026987
      0.17372      4.64857      6.36556        -0.000421      0.015872     -0.010097
      6.11904      4.66495     10.70563        -0.009449     -0.020097     -0.002232
      5.39298      5.97874      8.65046        -0.023301     -0.019191     -0.023428
      5.37884     -1.76771      2.08495        -0.034210     -0.103428      0.660551
      7.75463     -0.61366      8.40012         0.000499     -0.006708     -0.013031
      5.49662      3.23708      2.15701        -0.172707      0.037673      0.646230
      8.32259      3.23596      4.19312        -0.029453     -0.024009      0.105643
      0.80022      8.50937      2.18711         0.193869      0.152331      0.145633
      3.99114      5.84022      4.31960         0.150182     -0.134763      0.266550
      6.20056      2.08358      4.16604         0.398592     -0.220991     -0.076152
      1.68583      4.61440      4.36675        -0.132275     -0.122678      0.241132
      3.99596      5.89421     10.62468         0.021812     -0.019908     -0.022445
      7.72533      2.00098      8.48379        -0.020099      0.008790     -0.016856
      8.39504      0.77839      4.32394        -0.199593     -0.191710      0.556932
      6.11153      4.57803      4.24845        -0.189204      0.100179     -0.748177
      4.52975      2.06782      6.46544        -0.015112     -0.012179     -0.005727
      6.94972      0.69177      6.44414        -0.017140      0.013220     -0.027657
      0.94745      3.19737      2.04420         0.026189     -0.025378      0.110392
      6.17172      2.05716     10.73985         0.015598      0.009632     -0.014204
      5.34078      0.70822      2.14198         0.023368      0.281005     -0.053114
      0.95281      3.31337      8.60599         0.000077      0.001947      0.011306
      7.72123      4.56351      2.13761        -0.021904     -0.138370     -0.007030
      7.52905     -3.01256      8.59039         0.018053     -0.018751     -0.015215
      0.93004      8.41610      8.67148        -0.011064      0.007754     -0.008694
      2.43906      0.74745      6.50246        -0.006472     -0.001109     -0.001936
      8.34585     -1.77991      4.30362         0.053473      0.246126      0.024387
      5.45507      5.80413      2.18244         0.083432     -0.086147      0.501868
      6.21598     -0.54179      4.37515         0.470114      0.090434     -0.519549
      0.15150      7.09567      6.40239         0.004904      0.010791     -0.013774
      5.39549     -1.94995      8.59511         0.004523     -0.002732     -0.025046
 -----------------------------------------------------------------------------------
    total drift:                               -0.003826     -0.009198     -0.018529


--------------------------------------------------------------------------------------------------------



  FREE ENERGIE OF THE ION-ELECTRON SYSTEM (eV)
  ---------------------------------------------------
  free  energy   TOTEN  =      -533.45148541 eV

  energy  without entropy=     -533.49106633  energy(sigma->0) =     -533.46467905
 
 d Force = 0.4727284E-02[ 0.223E-02, 0.722E-02]  d Energy = 0.4595979E-02 0.131E-03
 d Force =-0.4205900E+02[-0.421E+02,-0.421E+02]  d Ewald  =-0.4205897E+02-0.294E-04


--------------------------------------------------------------------------------------------------------


    POTLOK:  cpu time    0.5571: real time    0.5610


--------------------------------------------------------------------------------------------------------


 Conjugate gradient step on ions:
 trial-energy change:   -0.004596  1 .order   -0.004727   -0.007221   -0.002234
  (g-gl).g = 0.497E-02      g.g   = 0.513E-02  gl.gl    = 0.165E-01
 g(Force)  = 0.513E-02   g(Stress)= 0.000E+00 ortho     = 0.220E-03
 gamma     =   0.30068
 trial     =   1.39044
 opt step  =   2.22394  (harmonic =   2.01332) maximal distance =0.00975411
 next E    =  -533.452127   (d E  =  -0.00524)


--------------------------------------------------------------------------------------------------------


  
 reached required accuracy - stopping structural energy minimisation
     LOOP+:  cpu time  294.1230: real time  296.1818
    4ORBIT:  cpu time    0.0000: real time    0.0000
 


 total charge     
 
# of ion       s       p       d       tot
------------------------------------------
    1        0.734   0.655   8.097   9.487
    2        0.745   0.471   8.087   9.303
    3        0.725   0.437   8.110   9.273
    4        0.753   0.675   8.123   9.551
    5        0.753   0.473   8.102   9.328
    6        0.707   0.618   8.129   9.454
    7        0.722   0.448   8.111   9.281
    8        0.743   0.639   8.084   9.465
    9        0.728   0.615   8.113   9.456
   10        0.750   0.696   8.109   9.554
   11        0.746   0.480   8.093   9.319
   12        0.743   0.477   8.096   9.316
   13        0.746   0.513   8.073   9.332
   14        0.762   0.504   8.095   9.362
   15        0.721   0.622   8.130   9.473
   16        0.722   0.591   8.112   9.425
   17        0.540   0.573   8.568   9.682
   18        0.559   0.594   8.550   9.703
   19        0.542   0.580   8.557   9.679
   20        0.543   0.548   8.534   9.624
   21        0.516   0.398   8.535   9.449
   22        0.532   0.561   8.553   9.646
   23        0.534   0.581   8.555   9.671
   24        0.553   0.589   8.546   9.688
   25        0.585   0.464   8.544   9.593
   26        0.563   0.619   8.559   9.740
   27        0.548   0.416   8.522   9.486
   28        0.524   0.392   8.528   9.443
   29        0.561   0.581   8.549   9.690
   30        0.559   0.594   8.564   9.717
   31        0.538   0.422   8.540   9.499
   32        0.544   0.416   8.536   9.496
   33        0.472   0.441   8.339   9.252
   34        0.468   0.451   8.346   9.265
   35        0.497   0.473   8.361   9.331
   36        0.463   0.342   8.325   9.129
   37        0.453   0.419   8.345   9.217
   38        0.472   0.471   8.357   9.300
   39        0.470   0.340   8.324   9.134
   40        0.506   0.404   8.353   9.263
   41        0.460   0.343   8.360   9.163
   42        0.489   0.477   8.328   9.294
   43        0.463   0.449   8.355   9.267
   44        0.466   0.346   8.346   9.159
   45        0.481   0.475   8.347   9.304
   46        0.481   0.373   8.332   9.186
   47        0.474   0.365   8.356   9.195
   48        0.484   0.453   8.354   9.290
   49        0.511   0.380   8.331   9.222
   50        0.453   0.445   7.259   8.157
   51        0.470   0.471   7.287   8.228
   52        0.462   0.363   7.251   8.076
   53        0.462   0.453   7.256   8.171
   54        0.444   0.349   7.237   8.030
   55        0.449   0.463   7.288   8.199
   56        0.458   0.361   7.241   8.060
   57        0.453   0.461   7.278   8.193
   58        0.450   0.327   7.233   8.009
   59        0.436   0.439   7.248   8.123
   60        0.460   0.471   7.262   8.193
   61        0.445   0.442   7.257   8.145
   62        0.474   0.378   7.257   8.110
   63        0.442   0.448   7.289   8.179
   64        0.462   0.462   7.269   8.194
   65        0.451   0.453   7.258   8.161
   66        0.449   0.440   7.268   8.157
   67        0.462   0.492   6.228   7.181
   68        0.442   0.350   6.104   6.896
   69        0.452   0.377   6.134   6.962
   70        0.458   0.366   6.118   6.943
   71        0.440   0.461   6.153   7.055
   72        0.464   0.385   6.159   7.008
   73        0.452   0.460   6.188   7.099
   74        0.437   0.457   6.146   7.040
   75        0.436   0.443   6.159   7.037
   76        0.444   0.460   6.175   7.079
   77        0.449   0.371   6.125   6.945
   78        0.458   0.485   6.217   7.160
   79        0.467   0.498   6.228   7.193
   80        0.445   0.471   6.208   7.124
--------------------------------------------------
tot         42.674  37.547 618.041 698.263
 


 magnetization (x)
 
# of ion       s       p       d       tot
------------------------------------------
    1       -0.014  -0.036   0.391   0.340
    2       -0.011  -0.017   0.171   0.143
    3       -0.008  -0.004   0.192   0.180
    4       -0.026  -0.055   0.429   0.348
    5       -0.015  -0.016   0.194   0.163
    6       -0.023  -0.034   0.345   0.288
    7       -0.017  -0.022   0.305   0.266
    8       -0.024  -0.054   0.361   0.282
    9       -0.030  -0.057   0.416   0.330
   10       -0.021  -0.053   0.277   0.203
   11       -0.019  -0.039   0.362   0.305
   12       -0.024  -0.049   0.364   0.290
   13       -0.006  -0.016   0.150   0.129
   14       -0.009  -0.008   0.191   0.174
   15       -0.030  -0.048   0.360   0.282
   16       -0.019  -0.043   0.308   0.247
   17       -0.021  -0.029   0.292   0.242
   18       -0.022  -0.042   0.325   0.260
   19       -0.023  -0.035   0.274   0.217
   20       -0.018  -0.040   0.231   0.172
   21       -0.008  -0.003   0.132   0.120
   22       -0.020  -0.038   0.301   0.243
   23       -0.021  -0.035   0.327   0.271
   24       -0.019  -0.044   0.335   0.272
   25       -0.027  -0.030   0.288   0.231
   26       -0.028  -0.046   0.283   0.209
   27       -0.015  -0.022   0.122   0.086
   28       -0.009  -0.005   0.082   0.069
   29       -0.024  -0.050   0.264   0.190
   30       -0.026  -0.044   0.311   0.242
   31       -0.019  -0.023   0.265   0.223
   32       -0.010  -0.011   0.069   0.049
   33       -0.014  -0.034   0.706   0.658
   34       -0.019  -0.043   0.780   0.718
   35       -0.021  -0.050   0.675   0.604
   36       -0.019  -0.031   0.776   0.726
   37       -0.018  -0.026   0.791   0.747
   38       -0.018  -0.037   0.751   0.696
   39       -0.010  -0.026   0.792   0.756
   40       -0.012  -0.016   0.547   0.519
   41       -0.012  -0.006   0.288   0.270
   42       -0.014  -0.039   0.745   0.692
   43       -0.013  -0.030   0.660   0.616
   44       -0.007  -0.008   0.502   0.487
   45       -0.018  -0.040   0.730   0.673
   46       -0.012  -0.029   0.759   0.718
   47       -0.007  -0.007   0.449   0.435
   48       -0.015  -0.039   0.632   0.579
   49       -0.019  -0.045   0.772   0.709
   50       -0.007  -0.037   1.775   1.731
   51       -0.013  -0.048   1.699   1.638
   52        0.006  -0.007   1.718   1.718
   53       -0.012  -0.034   1.860   1.814
   54        0.004  -0.010   1.836   1.830
   55       -0.017  -0.034   1.782   1.731
   56       -0.007  -0.030   1.818   1.780
   57       -0.015  -0.034   1.743   1.693
   58       -0.005  -0.012   1.879   1.861
   59       -0.009  -0.026   1.824   1.789
   60       -0.017  -0.045   1.809   1.746
   61       -0.011  -0.033   1.833   1.789
   62        0.007  -0.006   1.571   1.573
   63       -0.009  -0.022   1.746   1.716
   64       -0.018  -0.042   1.770   1.710
   65       -0.016  -0.043   1.808   1.749
   66       -0.004  -0.030   1.738   1.704
   67       -0.001  -0.029   2.642   2.612
   68        0.015   0.004   3.010   3.028
   69        0.026   0.011   2.824   2.861
   70        0.008  -0.011   2.973   2.970
   71        0.003  -0.008   2.950   2.945
   72        0.012  -0.020   2.869   2.862
   73        0.000  -0.015   2.838   2.824
   74        0.006  -0.003   2.945   2.948
   75        0.010  -0.008   2.849   2.851
   76       -0.001  -0.020   2.836   2.815
   77        0.007  -0.008   2.926   2.925
   78       -0.003  -0.025   2.704   2.676
   79        0.003  -0.022   2.676   2.658
   80        0.001  -0.016   2.764   2.749
--------------------------------------------------
tot         -0.910  -2.215  90.090  86.964
 

 total amount of memory used by VASP MPI-rank0   133082. kBytes
=======================================================================

   base      :      30000. kBytes
   nonlr-proj:      21729. kBytes
   fftplans  :      13111. kBytes
   grid      :      38873. kBytes
   one-center:        311. kBytes
   wavefun   :      29058. kBytes
 
  
  
 General timing and accounting informations for this job:
 ========================================================
  
                  Total CPU time used (sec):     8210.292
                            User time (sec):     8199.888
                          System time (sec):       10.404
                         Elapsed time (sec):     8268.925
  
                   Maximum memory used (kb):      674460.
                   Average memory used (kb):           0.
  
                          Minor page faults:      3227142
                          Major page faults:            0
                 Voluntary context switches:         3543
