       N       E                     dE             d eps       ncg     rms          rms(c)
DAV:   1     0.678595035309E+04    0.67860E+04   -0.31623E+05  2096   0.144E+03
DAV:   2     0.396473498683E+03   -0.63895E+04   -0.58311E+04  2096   0.354E+02
DAV:   3    -0.469776951424E+03   -0.86625E+03   -0.70973E+03  2260   0.154E+02
DAV:   4    -0.541118609516E+03   -0.71342E+02   -0.67390E+02  2328   0.459E+01
DAV:   5    -0.542935856120E+03   -0.18172E+01   -0.18097E+01  2376   0.766E+00    0.104E+02
RMM:   6    -0.715217237167E+03   -0.17228E+03   -0.92145E+02  2099   0.700E+01    0.191E+02
RMM:   7    -0.564605412799E+03    0.15061E+03   -0.25413E+02  2099   0.347E+01    0.122E+02
RMM:   8    -0.706059416997E+03   -0.14145E+03   -0.10303E+02  2098   0.209E+01    0.192E+02
RMM:   9    -0.599353682455E+03    0.10671E+03   -0.12186E+02  2102   0.228E+01    0.156E+02
RMM:  10    -0.511617996112E+03    0.87736E+02   -0.17081E+02  2103   0.282E+01    0.117E+02
RMM:  11    -0.481524696542E+03    0.30093E+02   -0.12692E+02  2102   0.237E+01    0.111E+02
RMM:  12    -0.479606504454E+03    0.19182E+01   -0.87408E+01  2101   0.211E+01    0.116E+02
RMM:  13    -0.448619556677E+03    0.30987E+02   -0.50717E+01  2101   0.164E+01    0.801E+01
RMM:  14    -0.434798178998E+03    0.13821E+02   -0.30593E+01  2101   0.120E+01    0.651E+01
RMM:  15    -0.442597875751E+03   -0.77997E+01   -0.19711E+01  2101   0.957E+00    0.797E+01
RMM:  16    -0.436199240418E+03    0.63986E+01   -0.17916E+01  2101   0.919E+00    0.499E+01
RMM:  17    -0.436845794058E+03   -0.64655E+00   -0.86994E+00  2100   0.623E+00    0.494E+01
RMM:  18    -0.439674939080E+03   -0.28291E+01   -0.60547E+00  2100   0.511E+00    0.492E+01
RMM:  19    -0.440340383683E+03   -0.66544E+00   -0.46194E+00  2101   0.444E+00    0.342E+01
RMM:  20    -0.442625879225E+03   -0.22855E+01   -0.33147E+00  2100   0.366E+00    0.318E+01
RMM:  21    -0.449507311977E+03   -0.68814E+01   -0.37214E+00  2101   0.377E+00    0.344E+01
RMM:  22    -0.451857506464E+03   -0.23502E+01   -0.30235E+00  2101   0.346E+00    0.292E+01
RMM:  23    -0.461520181432E+03   -0.96627E+01   -0.59082E+00  2100   0.457E+00    0.381E+01
RMM:  24    -0.464572670505E+03   -0.30525E+01   -0.49274E+00  2101   0.426E+00    0.247E+01
RMM:  25    -0.468034092210E+03   -0.34614E+01   -0.32574E+00  2100   0.330E+00    0.209E+01
RMM:  26    -0.473416481826E+03   -0.53824E+01   -0.31725E+00  2100   0.311E+00    0.226E+01
RMM:  27    -0.476570390645E+03   -0.31539E+01   -0.24767E+00  2100   0.285E+00    0.227E+01
RMM:  28    -0.479479933647E+03   -0.29095E+01   -0.22714E+00  2100   0.251E+00    0.192E+01
RMM:  29    -0.480634938875E+03   -0.11550E+01   -0.10265E+00  2100   0.178E+00    0.161E+01
RMM:  30    -0.483066137248E+03   -0.24312E+01   -0.14504E+00  2099   0.187E+00    0.151E+01
RMM:  31    -0.483962803683E+03   -0.89667E+00   -0.90120E-01  2100   0.163E+00    0.119E+01
RMM:  32    -0.486008634142E+03   -0.20458E+01   -0.12836E+00  2099   0.179E+00    0.154E+01
RMM:  33    -0.486323674384E+03   -0.31504E+00   -0.54115E-01  2100   0.129E+00    0.910E+00
RMM:  34    -0.487081162530E+03   -0.75749E+00   -0.46503E-01  2100   0.126E+00    0.125E+01
RMM:  35    -0.487405920236E+03   -0.32476E+00   -0.21990E-01  2099   0.800E-01    0.969E+00
RMM:  36    -0.487962020796E+03   -0.55610E+00   -0.28689E-01  2099   0.941E-01    0.108E+01
RMM:  37    -0.488815246577E+03   -0.85323E+00   -0.63208E-01  2099   0.120E+00    0.909E+00
RMM:  38    -0.489107398316E+03   -0.29215E+00   -0.30330E-01  2100   0.956E-01    0.657E+00
RMM:  39    -0.489386178383E+03   -0.27878E+00   -0.18970E-01  2100   0.754E-01    0.575E+00
RMM:  40    -0.489468613396E+03   -0.82435E-01   -0.75598E-02  2100   0.517E-01    0.423E+00
RMM:  41    -0.489677136942E+03   -0.20852E+00   -0.73648E-02  2100   0.485E-01    0.530E+00
RMM:  42    -0.489748109635E+03   -0.70973E-01   -0.48058E-02  2100   0.417E-01    0.395E+00
RMM:  43    -0.489886366444E+03   -0.13826E+00   -0.46659E-02  2100   0.378E-01    0.440E+00
RMM:  44    -0.489936628197E+03   -0.50262E-01   -0.30583E-02  2100   0.336E-01    0.348E+00
RMM:  45    -0.490015115614E+03   -0.78487E-01   -0.31109E-02  2100   0.327E-01    0.335E+00
RMM:  46    -0.490072739066E+03   -0.57623E-01   -0.30962E-02  2100   0.336E-01    0.259E+00
RMM:  47    -0.490121342724E+03   -0.48604E-01   -0.24478E-02  2100   0.308E-01    0.282E+00
RMM:  48    -0.490136080622E+03   -0.14738E-01   -0.11934E-02  2100   0.219E-01    0.211E+00
RMM:  49    -0.490143437045E+03   -0.73564E-02   -0.44661E-03  2100   0.133E-01    0.201E+00
RMM:  50    -0.490153703023E+03   -0.10266E-01   -0.39013E-03  2100   0.120E-01    0.190E+00
RMM:  51    -0.490074762215E+03    0.78941E-01   -0.53393E-02  2100   0.420E-01    0.285E+00
RMM:  52    -0.490148765551E+03   -0.74003E-01   -0.27629E-02  2100   0.323E-01    0.235E+00
RMM:  53    -0.490180548830E+03   -0.31783E-01   -0.17117E-02  2100   0.253E-01    0.189E+00
RMM:  54    -0.490204900402E+03   -0.24352E-01   -0.96928E-03  2100   0.176E-01    0.147E+00
RMM:  55    -0.490211126629E+03   -0.62262E-02   -0.44543E-03  2100   0.133E-01    0.135E+00
RMM:  56    -0.490226346290E+03   -0.15220E-01   -0.85911E-03  2100   0.190E-01    0.155E+00
RMM:  57    -0.490231173061E+03   -0.48268E-02   -0.69241E-03  2100   0.172E-01    0.128E+00
RMM:  58    -0.490237109049E+03   -0.59360E-02   -0.74591E-03  2100   0.160E-01    0.107E+00
RMM:  59    -0.490236686804E+03    0.42225E-03   -0.34171E-03  2100   0.112E-01    0.879E-01
RMM:  60    -0.490235058578E+03    0.16282E-02   -0.22687E-03  2100   0.935E-02    0.755E-01
RMM:  61    -0.490245466184E+03   -0.10408E-01   -0.95994E-03  2100   0.190E-01    0.153E+00
RMM:  62    -0.490239894164E+03    0.55720E-02   -0.36026E-03  2100   0.128E-01    0.845E-01
RMM:  63    -0.490238052676E+03    0.18415E-02   -0.23867E-03  2100   0.972E-02    0.627E-01
RMM:  64    -0.490237685636E+03    0.36704E-03   -0.11917E-03  2100   0.684E-02    0.490E-01
RMM:  65    -0.490238394712E+03   -0.70908E-03   -0.56157E-04  2100   0.480E-02    0.457E-01
RMM:  66    -0.490241688498E+03   -0.32938E-02   -0.12186E-03  2099   0.655E-02    0.491E-01
RMM:  67    -0.490240780298E+03    0.90820E-03   -0.82758E-04  2100   0.583E-02    0.402E-01
RMM:  68    -0.490239819284E+03    0.96101E-03   -0.61409E-04  2100   0.472E-02    0.368E-01
RMM:  69    -0.490240906411E+03   -0.10871E-02   -0.51111E-04  2099   0.439E-02    0.356E-01
RMM:  70    -0.490242056519E+03   -0.11501E-02   -0.26687E-04  2100   0.314E-02    0.256E-01
RMM:  71    -0.490244380348E+03   -0.23238E-02   -0.57182E-04  2100   0.472E-02    0.442E-01
RMM:  72    -0.490245180168E+03   -0.79982E-03   -0.31749E-04  2099   0.375E-02    0.204E-01
RMM:  73    -0.490245866363E+03   -0.68620E-03   -0.13997E-04  2100   0.223E-02    0.168E-01
RMM:  74    -0.490246327075E+03   -0.46071E-03   -0.11067E-04  2097   0.193E-02    0.120E-01
RMM:  75    -0.490247444782E+03   -0.11177E-02   -0.86116E-05  2098   0.166E-02    0.104E-01
RMM:  76    -0.490248987630E+03   -0.15428E-02   -0.13341E-04  2098   0.223E-02    0.179E-01
RMM:  77    -0.490249438571E+03   -0.45094E-03   -0.68330E-05  2098   0.174E-02    0.897E-02
RMM:  78    -0.490250869054E+03   -0.14305E-02   -0.73416E-05  2097   0.126E-02    0.646E-02
RMM:  79    -0.490252050413E+03   -0.11814E-02   -0.27454E-05  2080   0.859E-03    0.563E-02
RMM:  80    -0.490252963683E+03   -0.91327E-03   -0.19251E-05  2055   0.705E-03    0.424E-02
RMM:  81    -0.490253305437E+03   -0.34175E-03   -0.21206E-05  2091   0.914E-03    0.780E-02
RMM:  82    -0.490254112401E+03   -0.80696E-03   -0.21983E-05  2056   0.838E-03    0.317E-02
RMM:  83    -0.490255059451E+03   -0.94705E-03   -0.11108E-05  1842   0.507E-03    0.345E-02
RMM:  84    -0.490255956623E+03   -0.89717E-03   -0.98930E-06  1802   0.473E-03    0.335E-02
RMM:  85    -0.490256504457E+03   -0.54783E-03   -0.63023E-06  1729   0.392E-03    0.222E-02
RMM:  86    -0.490256957744E+03   -0.45329E-03   -0.52027E-06  1740   0.400E-03    0.319E-02
RMM:  87    -0.490257417396E+03   -0.45965E-03   -0.58369E-06  1708   0.404E-03    0.214E-02
RMM:  88    -0.490258117731E+03   -0.70033E-03   -0.72553E-06  1635   0.327E-03    0.194E-02
RMM:  89    -0.490258727094E+03   -0.60936E-03   -0.74536E-06  1643   0.345E-03    0.202E-02
RMM:  90    -0.490259282624E+03   -0.55553E-03   -0.91298E-06  1686   0.354E-03    0.168E-02
RMM:  91    -0.490259546422E+03   -0.26380E-03   -0.35331E-06  1470   0.261E-03    0.141E-02
RMM:  92    -0.490259777787E+03   -0.23136E-03   -0.34307E-06  1483   0.253E-03    0.999E-03
RMM:  93    -0.490259920075E+03   -0.14229E-03   -0.24008E-06  1428   0.194E-03    0.882E-03
RMM:  94    -0.490259990368E+03   -0.70293E-04   -0.16385E-06  1379   0.183E-03    0.755E-03
RMM:  95    -0.490260019574E+03   -0.29206E-04   -0.98501E-07  1328   0.134E-03    0.553E-03
RMM:  96    -0.490260023856E+03   -0.42820E-05   -0.36070E-07  1205   0.124E-03    0.616E-03
RMM:  97    -0.490260030076E+03   -0.62199E-05   -0.62497E-07  1287   0.106E-03    0.410E-03
RMM:  98    -0.490260030193E+03   -0.11740E-06   -0.28693E-07  1157   0.765E-04
   1 F= -.52686273E+03 E0= -.52685875E+03  d E =-.526863E+03  mag=    89.9681
       N       E                     dE             d eps       ncg     rms          rms(c)
DAV:   1    -0.485453718490E+03    0.48063E+01   -0.23867E+03  2096   0.587E+01    0.219E+01
RMM:   2    -0.517378473117E+03   -0.31925E+02   -0.11058E+02  2100   0.256E+01    0.820E+01
RMM:   3    -0.500168184970E+03    0.17210E+02   -0.34417E+01  2162   0.123E+01    0.384E+01
RMM:   4    -0.497570586661E+03    0.25976E+01   -0.81276E+00  2160   0.586E+00    0.292E+01
RMM:   5    -0.497799326238E+03   -0.22874E+00   -0.31085E+00  2105   0.341E+00    0.322E+01
RMM:   6    -0.495759070904E+03    0.20403E+01   -0.17954E+00  2100   0.269E+00    0.210E+01
RMM:   7    -0.494949914470E+03    0.80916E+00   -0.11731E+00  2100   0.224E+00    0.166E+01
RMM:   8    -0.494509364715E+03    0.44055E+00   -0.62790E-01  2100   0.164E+00    0.115E+01
RMM:   9    -0.494624621054E+03   -0.11526E+00   -0.43366E-01  2101   0.133E+00    0.121E+01
RMM:  10    -0.494560738914E+03    0.63882E-01   -0.45139E-01  2101   0.137E+00    0.104E+01
RMM:  11    -0.494548967832E+03    0.11771E-01   -0.51203E-01  2100   0.145E+00    0.100E+01
RMM:  12    -0.494663606793E+03   -0.11464E+00   -0.51046E-01  2101   0.142E+00    0.116E+01
RMM:  13    -0.494286774139E+03    0.37683E+00   -0.29391E-01  2101   0.113E+00    0.441E+00
RMM:  14    -0.494331507935E+03   -0.44734E-01   -0.14593E-01  2102   0.767E-01    0.526E+00
RMM:  15    -0.494285482097E+03    0.46026E-01   -0.98258E-02  2101   0.640E-01    0.362E+00
RMM:  16    -0.494263548840E+03    0.21933E-01   -0.50724E-02  2100   0.476E-01    0.253E+00
RMM:  17    -0.494250354615E+03    0.13194E-01   -0.27539E-02  2100   0.338E-01    0.181E+00
RMM:  18    -0.494247402932E+03    0.29517E-02   -0.15194E-02  2100   0.256E-01    0.137E+00
RMM:  19    -0.494245713555E+03    0.16894E-02   -0.85883E-03  2101   0.193E-01    0.106E+00
RMM:  20    -0.494243144317E+03    0.25692E-02   -0.51669E-03  2100   0.152E-01    0.625E-01
RMM:  21    -0.494243303087E+03   -0.15877E-03   -0.25339E-03  2101   0.103E-01    0.699E-01
RMM:  22    -0.494241701195E+03    0.16019E-02   -0.14624E-03  2100   0.807E-02    0.306E-01
RMM:  23    -0.494241948124E+03   -0.24693E-03   -0.82825E-04  2100   0.590E-02    0.417E-01
RMM:  24    -0.494241661375E+03    0.28675E-03   -0.53989E-04  2100   0.475E-02    0.247E-01
RMM:  25    -0.494241841300E+03   -0.17992E-03   -0.36878E-04  2101   0.398E-02    0.247E-01
RMM:  26    -0.494242145615E+03   -0.30432E-03   -0.20642E-04  2100   0.290E-02    0.162E-01
RMM:  27    -0.494242352637E+03   -0.20702E-03   -0.10783E-04  2100   0.216E-02    0.123E-01
RMM:  28    -0.494242868231E+03   -0.51559E-03   -0.62255E-05  2100   0.161E-02    0.111E-01
RMM:  29    -0.494243258144E+03   -0.38991E-03   -0.44036E-05  2096   0.139E-02    0.818E-02
RMM:  30    -0.494243981074E+03   -0.72293E-03   -0.38699E-05  2096   0.123E-02    0.106E-01
RMM:  31    -0.494244564884E+03   -0.58381E-03   -0.29564E-05  2096   0.111E-02    0.718E-02
RMM:  32    -0.494245226511E+03   -0.66163E-03   -0.25785E-05  2096   0.964E-03    0.695E-02
RMM:  33    -0.494245863721E+03   -0.63721E-03   -0.22468E-05  2096   0.919E-03    0.601E-02
RMM:  34    -0.494246520314E+03   -0.65659E-03   -0.19057E-05  2096   0.847E-03    0.624E-02
RMM:  35    -0.494247172405E+03   -0.65209E-03   -0.18440E-05  2096   0.832E-03    0.539E-02
RMM:  36    -0.494247977707E+03   -0.80530E-03   -0.18311E-05  2092   0.791E-03    0.490E-02
RMM:  37    -0.494248644952E+03   -0.66725E-03   -0.16842E-05  2096   0.769E-03    0.473E-02
RMM:  38    -0.494249321063E+03   -0.67611E-03   -0.15336E-05  2090   0.683E-03    0.390E-02
RMM:  39    -0.494249674706E+03   -0.35364E-03   -0.91784E-06  1881   0.559E-03    0.282E-02
RMM:  40    -0.494250053316E+03   -0.37861E-03   -0.82023E-06  1790   0.448E-03    0.233E-02
RMM:  41    -0.494250184525E+03   -0.13121E-03   -0.43430E-06  1649   0.393E-03    0.167E-02
RMM:  42    -0.494250279134E+03   -0.94609E-04   -0.41903E-06  1594   0.320E-03    0.194E-02
RMM:  43    -0.494250258145E+03    0.20989E-04   -0.26228E-06  1445   0.295E-03    0.109E-02
RMM:  44    -0.494250209693E+03    0.48452E-04   -0.13304E-06  1268   0.205E-03    0.114E-02
RMM:  45    -0.494250189830E+03    0.19863E-04   -0.68359E-07  1213   0.188E-03    0.636E-03
RMM:  46    -0.494250180759E+03    0.90705E-05   -0.25050E-07  1176   0.103E-03    0.686E-03
RMM:  47    -0.494250183173E+03   -0.24137E-05   -0.22303E-07  1158   0.107E-03    0.647E-03
RMM:  48    -0.494250182772E+03    0.40059E-06   -0.13452E-07  1147   0.819E-04
   2 F= -.53077809E+03 E0= -.53077840E+03  d E =-.391535E+01  mag=    89.8125
       N       E                     dE             d eps       ncg     rms          rms(c)
DAV:   1    -0.494236720193E+03    0.13463E-01   -0.10237E+01  2144   0.365E+00    0.114E+00
RMM:   2    -0.494313992014E+03   -0.77272E-01   -0.20816E-01  2100   0.105E+00    0.414E+00
RMM:   3    -0.494288432549E+03    0.25559E-01   -0.74723E-02  2280   0.534E-01    0.296E+00
RMM:   4    -0.494314216985E+03   -0.25784E-01   -0.28402E-02  2103   0.329E-01    0.380E+00
RMM:   5    -0.494269950898E+03    0.44266E-01   -0.14982E-02  2100   0.256E-01    0.125E+00
RMM:   6    -0.494265483031E+03    0.44679E-02   -0.41854E-03  2100   0.138E-01    0.593E-01
RMM:   7    -0.494265277472E+03    0.20556E-03   -0.14467E-03  2101   0.761E-02    0.545E-01
RMM:   8    -0.494265172290E+03    0.10518E-03   -0.13599E-03  2100   0.700E-02    0.569E-01
RMM:   9    -0.494264636828E+03    0.53546E-03   -0.13792E-03  2101   0.743E-02    0.400E-01
RMM:  10    -0.494265610715E+03   -0.97389E-03   -0.19927E-03  2100   0.859E-02    0.688E-01
RMM:  11    -0.494264680044E+03    0.93067E-03   -0.14317E-03  2104   0.764E-02    0.396E-01
RMM:  12    -0.494264313431E+03    0.36661E-03   -0.48749E-04  2103   0.450E-02    0.207E-01
RMM:  13    -0.494264235639E+03    0.77792E-04   -0.19035E-04  2100   0.280E-02    0.124E-01
RMM:  14    -0.494264191657E+03    0.43981E-04   -0.68634E-05  2098   0.169E-02    0.818E-02
RMM:  15    -0.494264163063E+03    0.28594E-04   -0.41555E-05  2096   0.129E-02    0.632E-02
RMM:  16    -0.494264142914E+03    0.20149E-04   -0.24999E-05  2100   0.992E-03    0.420E-02
RMM:  17    -0.494264142224E+03    0.69019E-06   -0.15606E-05  2096   0.747E-03    0.385E-02
RMM:  18    -0.494264141330E+03    0.89419E-06   -0.11215E-05  2094   0.654E-03    0.324E-02
RMM:  19    -0.494264141887E+03   -0.55765E-06   -0.68480E-06  1874   0.521E-03
   3 F= -.53079292E+03 E0= -.53079325E+03  d E =-.393018E+01  mag=    89.8249
       N       E                     dE             d eps       ncg     rms          rms(c)
DAV:   1    -0.493321784509E+03    0.94236E+00   -0.59952E+02  2096   0.298E+01    0.108E+01
RMM:   2    -0.498699204675E+03   -0.53774E+01   -0.15641E+01  2100   0.965E+00    0.323E+01
RMM:   3    -0.497918151679E+03    0.78105E+00   -0.69038E+00  2158   0.540E+00    0.270E+01
RMM:   4    -0.499006112880E+03   -0.10880E+01   -0.23030E+00  2106   0.305E+00    0.292E+01
RMM:   5    -0.495724673043E+03    0.32814E+01   -0.10284E+00  2100   0.206E+00    0.108E+01
RMM:   6    -0.495454281376E+03    0.27039E+00   -0.52151E-01  2100   0.147E+00    0.651E+00
RMM:   7    -0.495480194740E+03   -0.25913E-01   -0.24010E-01  2100   0.992E-01    0.670E+00
RMM:   8    -0.495389203889E+03    0.90991E-01   -0.11781E-01  2101   0.709E-01    0.406E+00
RMM:   9    -0.495406792980E+03   -0.17589E-01   -0.85444E-02  2100   0.593E-01    0.458E+00
RMM:  10    -0.495391900711E+03    0.14892E-01   -0.87391E-02  2103   0.584E-01    0.394E+00
RMM:  11    -0.495371904812E+03    0.19996E-01   -0.80186E-02  2101   0.578E-01    0.293E+00
RMM:  12    -0.495365512772E+03    0.63920E-02   -0.55495E-02  2102   0.470E-01    0.270E+00
RMM:  13    -0.495357256254E+03    0.82565E-02   -0.34086E-02  2101   0.373E-01    0.212E+00
RMM:  14    -0.495352228815E+03    0.50274E-02   -0.16030E-02  2100   0.255E-01    0.171E+00
RMM:  15    -0.495345383056E+03    0.68458E-02   -0.10317E-02  2100   0.210E-01    0.909E-01
RMM:  16    -0.495344020912E+03    0.13621E-02   -0.43516E-03  2100   0.136E-01    0.704E-01
RMM:  17    -0.495343087153E+03    0.93376E-03   -0.22902E-03  2100   0.992E-02    0.455E-01
RMM:  18    -0.495343027423E+03    0.59730E-04   -0.11814E-03  2100   0.702E-02    0.405E-01
RMM:  19    -0.495342711797E+03    0.31563E-03   -0.67211E-04  2100   0.531E-02    0.202E-01
RMM:  20    -0.495342833528E+03   -0.12173E-03   -0.35944E-04  2098   0.389E-02    0.220E-01
RMM:  21    -0.495342830009E+03    0.35187E-05   -0.20544E-04  2103   0.294E-02    0.154E-01
RMM:  22    -0.495342845892E+03   -0.15882E-04   -0.11586E-04  2099   0.225E-02    0.998E-02
RMM:  23    -0.495342948766E+03   -0.10287E-03   -0.72361E-05  2098   0.166E-02    0.981E-02
RMM:  24    -0.495342994346E+03   -0.45580E-04   -0.43760E-05  2096   0.136E-02    0.557E-02
RMM:  25    -0.495343068789E+03   -0.74443E-04   -0.19254E-05  2095   0.878E-03    0.559E-02
RMM:  26    -0.495343109319E+03   -0.40529E-04   -0.11402E-05  1938   0.698E-03    0.371E-02
RMM:  27    -0.495343166657E+03   -0.57338E-04   -0.56619E-06  1789   0.499E-03    0.312E-02
RMM:  28    -0.495343209769E+03   -0.43112E-04   -0.38669E-06  1667   0.440E-03    0.200E-02
RMM:  29    -0.495343275458E+03   -0.65689E-04   -0.28547E-06  1547   0.352E-03    0.234E-02
RMM:  30    -0.495343317993E+03   -0.42535E-04   -0.19940E-06  1340   0.329E-03    0.127E-02
RMM:  31    -0.495343377301E+03   -0.59309E-04   -0.14969E-06  1305   0.248E-03    0.178E-02
RMM:  32    -0.495343422582E+03   -0.45281E-04   -0.11572E-06  1235   0.246E-03    0.968E-03
RMM:  33    -0.495343474921E+03   -0.52338E-04   -0.82954E-07  1257   0.170E-03    0.128E-02
RMM:  34    -0.495343539835E+03   -0.64915E-04   -0.10193E-06  1300   0.194E-03    0.939E-03
RMM:  35    -0.495343591872E+03   -0.52036E-04   -0.76858E-07  1256   0.153E-03    0.996E-03
RMM:  36    -0.495343653774E+03   -0.61902E-04   -0.92442E-07  1308   0.161E-03    0.678E-03
RMM:  37    -0.495343704330E+03   -0.50556E-04   -0.79510E-07  1277   0.142E-03    0.804E-03
RMM:  38    -0.495343758038E+03   -0.53709E-04   -0.90931E-07  1314   0.142E-03    0.536E-03
RMM:  39    -0.495343787435E+03   -0.29396E-04   -0.51364E-07  1239   0.115E-03    0.604E-03
RMM:  40    -0.495343836384E+03   -0.48949E-04   -0.10334E-06  1339   0.120E-03    0.472E-03
RMM:  41    -0.495343858767E+03   -0.22383E-04   -0.52901E-07  1249   0.111E-03    0.496E-03
RMM:  42    -0.495343882792E+03   -0.24025E-04   -0.70203E-07  1292   0.100E-03    0.373E-03
RMM:  43    -0.495343889946E+03   -0.71539E-05   -0.25668E-07  1157   0.841E-04    0.298E-03
RMM:  44    -0.495343897040E+03   -0.70941E-05   -0.26239E-07  1135   0.654E-04    0.229E-03
RMM:  45    -0.495343898710E+03   -0.16702E-05   -0.92650E-08  1035   0.560E-04    0.160E-03
RMM:  46    -0.495343900005E+03   -0.12946E-05   -0.63145E-08   927   0.400E-04    0.191E-03
RMM:  47    -0.495343900371E+03   -0.36680E-06   -0.32078E-08   850   0.380E-04
   4 F= -.53188249E+03 E0= -.53188259E+03  d E =-.108958E+01  mag=    89.5480
       N       E                     dE             d eps       ncg     rms          rms(c)
DAV:   1    -0.495341088144E+03    0.28119E-02   -0.12483E+00  2128   0.133E+00    0.455E-01
RMM:   2    -0.495352217588E+03   -0.11129E-01   -0.23967E-02  2100   0.359E-01    0.149E+00
RMM:   3    -0.495350812504E+03    0.14051E-02   -0.96643E-03  2225   0.196E-01    0.135E+00
RMM:   4    -0.495350573669E+03    0.23884E-03   -0.48264E-03  2101   0.137E-01    0.128E+00
RMM:   5    -0.495345498659E+03    0.50750E-02   -0.26436E-03  2100   0.108E-01    0.472E-01
RMM:   6    -0.495344852865E+03    0.64579E-03   -0.60751E-04  2100   0.527E-02    0.176E-01
RMM:   7    -0.495344868993E+03   -0.16128E-04   -0.17214E-04  2101   0.262E-02    0.191E-01
RMM:   8    -0.495344859661E+03    0.93320E-05   -0.15775E-04  2101   0.242E-02    0.189E-01
RMM:   9    -0.495344789208E+03    0.70453E-04   -0.15696E-04  2101   0.250E-02    0.128E-01
RMM:  10    -0.495344912011E+03   -0.12280E-03   -0.19167E-04  2102   0.270E-02    0.233E-01
RMM:  11    -0.495344804389E+03    0.10762E-03   -0.14738E-04  2103   0.242E-02    0.128E-01
RMM:  12    -0.495344766506E+03    0.37883E-04   -0.55407E-05  2099   0.152E-02    0.620E-02
RMM:  13    -0.495344761980E+03    0.45263E-05   -0.19249E-05  2095   0.863E-03    0.466E-02
RMM:  14    -0.495344756444E+03    0.55364E-05   -0.68634E-06  1830   0.534E-03    0.176E-02
RMM:  15    -0.495344758184E+03   -0.17401E-05   -0.33082E-06  1580   0.386E-03    0.225E-02
RMM:  16    -0.495344757332E+03    0.85140E-06   -0.24918E-06  1305   0.354E-03
   5 F= -.53188458E+03 E0= -.53188470E+03  d E =-.109166E+01  mag=    89.5408
       N       E                     dE             d eps       ncg     rms          rms(c)
DAV:   1    -0.494897518318E+03    0.44724E+00   -0.24405E+02  2096   0.191E+01    0.691E+00
RMM:   2    -0.496495525584E+03   -0.15980E+01   -0.47615E+00  2100   0.516E+00    0.161E+01
RMM:   3    -0.497643450779E+03   -0.11479E+01   -0.22592E+00  2171   0.302E+00    0.232E+01
RMM:   4    -0.496996313692E+03    0.64714E+00   -0.96872E-01  2102   0.197E+00    0.184E+01
RMM:   5    -0.495845363325E+03    0.11510E+01   -0.50656E-01  2100   0.147E+00    0.623E+00
RMM:   6    -0.495775028263E+03    0.70335E-01   -0.18641E-01  2100   0.888E-01    0.427E+00
RMM:   7    -0.495784562890E+03   -0.95346E-02   -0.78512E-02  2100   0.560E-01    0.441E+00
RMM:   8    -0.495743911610E+03    0.40651E-01   -0.40884E-02  2101   0.423E-01    0.211E+00
RMM:   9    -0.495744671924E+03   -0.76031E-03   -0.27377E-02  2099   0.338E-01    0.225E+00
RMM:  10    -0.495743885699E+03    0.78622E-03   -0.27683E-02  2102   0.324E-01    0.201E+00
RMM:  11    -0.495736032462E+03    0.78532E-02   -0.25172E-02  2101   0.324E-01    0.153E+00
RMM:  12    -0.495734002207E+03    0.20303E-02   -0.17756E-02  2102   0.263E-01    0.139E+00
RMM:  13    -0.495730893178E+03    0.31090E-02   -0.10321E-02  2101   0.206E-01    0.102E+00
RMM:  14    -0.495730360658E+03    0.53252E-03   -0.46000E-03  2102   0.138E-01    0.918E-01
RMM:  15    -0.495728485099E+03    0.18756E-02   -0.29145E-03  2100   0.110E-01    0.546E-01
RMM:  16    -0.495727964896E+03    0.52020E-03   -0.11925E-03  2100   0.711E-02    0.352E-01
RMM:  17    -0.495727682894E+03    0.28200E-03   -0.57493E-04  2100   0.494E-02    0.204E-01
RMM:  18    -0.495727780012E+03   -0.97118E-04   -0.35565E-04  2100   0.386E-02    0.221E-01
RMM:  19    -0.495727725984E+03    0.54028E-04   -0.21502E-04  2101   0.306E-02    0.107E-01
RMM:  20    -0.495727856363E+03   -0.13038E-03   -0.12948E-04  2099   0.229E-02    0.143E-01
RMM:  21    -0.495727888606E+03   -0.32243E-04   -0.80022E-05  2100   0.185E-02    0.716E-02
RMM:  22    -0.495727962943E+03   -0.74337E-04   -0.40828E-05  2097   0.130E-02    0.732E-02
RMM:  23    -0.495728055477E+03   -0.92534E-04   -0.26670E-05  2096   0.103E-02    0.498E-02
RMM:  24    -0.495728127291E+03   -0.71814E-04   -0.14994E-05  2031   0.799E-03    0.417E-02
RMM:  25    -0.495728229701E+03   -0.10241E-03   -0.96779E-06  1956   0.633E-03    0.376E-02
RMM:  26    -0.495728294027E+03   -0.64327E-04   -0.55656E-06  1786   0.502E-03    0.289E-02
RMM:  27    -0.495728381835E+03   -0.87808E-04   -0.37052E-06  1651   0.399E-03    0.268E-02
RMM:  28    -0.495728452062E+03   -0.70227E-04   -0.23107E-06  1437   0.338E-03    0.176E-02
RMM:  29    -0.495728525708E+03   -0.73646E-04   -0.15387E-06  1306   0.250E-03    0.177E-02
RMM:  30    -0.495728605895E+03   -0.80187E-04   -0.14751E-06  1320   0.252E-03    0.136E-02
RMM:  31    -0.495728740239E+03   -0.13434E-03   -0.23270E-06  1425   0.241E-03    0.162E-02
RMM:  32    -0.495728826881E+03   -0.86642E-04   -0.17185E-06  1335   0.255E-03    0.101E-02
RMM:  33    -0.495728945349E+03   -0.11847E-03   -0.23324E-06  1432   0.228E-03    0.139E-02
RMM:  34    -0.495729039712E+03   -0.94363E-04   -0.20888E-06  1390   0.244E-03    0.913E-03
RMM:  35    -0.495729105522E+03   -0.65810E-04   -0.14422E-06  1327   0.188E-03    0.101E-02
RMM:  36    -0.495729157592E+03   -0.52070E-04   -0.11927E-06  1305   0.185E-03    0.599E-03
RMM:  37    -0.495729199611E+03   -0.42018E-04   -0.10182E-06  1302   0.152E-03    0.811E-03
RMM:  38    -0.495729229196E+03   -0.29586E-04   -0.79908E-07  1271   0.149E-03    0.451E-03
RMM:  39    -0.495729244756E+03   -0.15559E-04   -0.44151E-07  1238   0.108E-03    0.541E-03
RMM:  40    -0.495729259488E+03   -0.14733E-04   -0.43930E-07  1250   0.107E-03    0.322E-03
RMM:  41    -0.495729265080E+03   -0.55922E-05   -0.20438E-07  1171   0.792E-04    0.347E-03
RMM:  42    -0.495729270507E+03   -0.54264E-05   -0.16581E-07  1147   0.670E-04    0.248E-03
RMM:  43    -0.495729272238E+03   -0.17312E-05   -0.70464E-08  1003   0.514E-04    0.202E-03
RMM:  44    -0.495729274583E+03   -0.23451E-05   -0.55462E-08   917   0.400E-04    0.151E-03
RMM:  45    -0.495729275364E+03   -0.78103E-06   -0.24068E-08   817   0.356E-04
   6 F= -.53227930E+03 E0= -.53227952E+03  d E =-.394721E+00  mag=    89.3735
       N       E                     dE             d eps       ncg     rms          rms(c)
DAV:   1    -0.495728717069E+03    0.55751E-03   -0.11191E-01  2160   0.404E-01    0.140E-01
RMM:   2    -0.495729449658E+03   -0.73259E-03   -0.18213E-03  2100   0.983E-02    0.332E-01
RMM:   3    -0.495729926339E+03   -0.47668E-03   -0.79830E-04  2200   0.561E-02    0.488E-01
RMM:   4    -0.495729509289E+03    0.41705E-03   -0.45443E-04  2097   0.426E-02    0.372E-01
RMM:   5    -0.495729112598E+03    0.39669E-03   -0.25109E-04  2099   0.336E-02    0.129E-01
RMM:   6    -0.495729074008E+03    0.38590E-04   -0.46034E-05  2096   0.141E-02    0.495E-02
RMM:   7    -0.495729076688E+03   -0.26807E-05   -0.14553E-05  2023   0.765E-03    0.557E-02
RMM:   8    -0.495729072474E+03    0.42143E-05   -0.12220E-05  2096   0.681E-03    0.478E-02
RMM:   9    -0.495729068108E+03    0.43657E-05   -0.10824E-05  2024   0.667E-03    0.319E-02
RMM:  10    -0.495729079157E+03   -0.11049E-04   -0.14424E-05  2092   0.737E-03    0.652E-02
RMM:  11    -0.495729069033E+03    0.10124E-04   -0.11176E-05  2016   0.667E-03    0.325E-02
RMM:  12    -0.495729067402E+03    0.16318E-05   -0.41221E-06  1682   0.431E-03    0.157E-02
RMM:  13    -0.495729067790E+03   -0.38849E-06   -0.13063E-06  1180   0.257E-03
   7 F= -.53227946E+03 E0= -.53227969E+03  d E =-.394885E+00  mag=    89.3725
       N       E                     dE             d eps       ncg     rms          rms(c)
DAV:   1    -0.495636590230E+03    0.92477E-01   -0.78642E+01  2096   0.108E+01    0.388E+00
RMM:   2    -0.495972771629E+03   -0.33618E+00   -0.12839E+00  2100   0.271E+00    0.609E+00
RMM:   3    -0.496554652626E+03   -0.58188E+00   -0.70247E-01  2161   0.167E+00    0.137E+01
RMM:   4    -0.496149256540E+03    0.40540E+00   -0.27282E-01  2106   0.106E+00    0.814E+00
RMM:   5    -0.495932556531E+03    0.21670E+00   -0.10576E-01  2100   0.658E-01    0.260E+00
RMM:   6    -0.495922100679E+03    0.10456E-01   -0.34075E-02  2100   0.376E-01    0.186E+00
RMM:   7    -0.495922291205E+03   -0.19053E-03   -0.14654E-02  2101   0.242E-01    0.192E+00
RMM:   8    -0.495913795501E+03    0.84957E-02   -0.85261E-03  2100   0.192E-01    0.909E-01
RMM:   9    -0.495913771246E+03    0.24255E-04   -0.58456E-03  2101   0.154E-01    0.101E+00
RMM:  10    -0.495914673275E+03   -0.90203E-03   -0.83835E-03  2102   0.176E-01    0.115E+00
RMM:  11    -0.495912376937E+03    0.22963E-02   -0.69467E-03  2101   0.167E-01    0.881E-01
RMM:  12    -0.495911263398E+03    0.11135E-02   -0.37495E-03  2102   0.121E-01    0.683E-01
RMM:  13    -0.495910324265E+03    0.93913E-03   -0.18610E-03  2100   0.863E-02    0.360E-01
RMM:  14    -0.495910266998E+03    0.57267E-04   -0.78269E-04  2100   0.576E-02    0.300E-01
RMM:  15    -0.495910069673E+03    0.19733E-03   -0.35327E-04  2100   0.396E-02    0.149E-01
RMM:  16    -0.495910085377E+03   -0.15704E-04   -0.14715E-04  2100   0.245E-02    0.128E-01
RMM:  17    -0.495910094878E+03   -0.95014E-05   -0.82794E-05  2099   0.186E-02    0.838E-02
RMM:  18    -0.495910182221E+03   -0.87342E-04   -0.62477E-05  2097   0.159E-02    0.912E-02
RMM:  19    -0.495910235877E+03   -0.53657E-04   -0.42584E-05  2099   0.131E-02    0.535E-02
RMM:  20    -0.495910290869E+03   -0.54992E-04   -0.23552E-05  2096   0.974E-03    0.526E-02
RMM:  21    -0.495910342736E+03   -0.51867E-04   -0.14013E-05  2087   0.750E-03    0.334E-02
RMM:  22    -0.495910382145E+03   -0.39409E-04   -0.73159E-06  1850   0.556E-03    0.292E-02
RMM:  23    -0.495910437156E+03   -0.55011E-04   -0.50178E-06  1758   0.467E-03    0.237E-02
RMM:  24    -0.495910472228E+03   -0.35072E-04   -0.28593E-06  1538   0.377E-03    0.154E-02
RMM:  25    -0.495910514164E+03   -0.41935E-04   -0.15617E-06  1274   0.275E-03    0.146E-02
RMM:  26    -0.495910535707E+03   -0.21543E-04   -0.86472E-07  1213   0.220E-03    0.100E-02
RMM:  27    -0.495910566632E+03   -0.30925E-04   -0.56246E-07  1230   0.152E-03    0.101E-02
RMM:  28    -0.495910591935E+03   -0.25303E-04   -0.44228E-07  1216   0.143E-03    0.669E-03
RMM:  29    -0.495910627147E+03   -0.35212E-04   -0.44174E-07  1242   0.113E-03    0.781E-03
RMM:  30    -0.495910654159E+03   -0.27012E-04   -0.38381E-07  1226   0.120E-03    0.616E-03
RMM:  31    -0.495910701523E+03   -0.47364E-04   -0.67931E-07  1283   0.120E-03    0.743E-03
RMM:  32    -0.495910735772E+03   -0.34249E-04   -0.57848E-07  1255   0.132E-03    0.443E-03
RMM:  33    -0.495910768892E+03   -0.33120E-04   -0.60620E-07  1273   0.110E-03    0.609E-03
RMM:  34    -0.495910796549E+03   -0.27657E-04   -0.59477E-07  1262   0.118E-03    0.345E-03
RMM:  35    -0.495910812102E+03   -0.15553E-04   -0.36160E-07  1197   0.875E-04    0.437E-03
RMM:  36    -0.495910823529E+03   -0.11427E-04   -0.29072E-07  1223   0.864E-04    0.244E-03
RMM:  37    -0.495910831118E+03   -0.75888E-05   -0.20720E-07  1125   0.671E-04    0.335E-03
RMM:  38    -0.495910835568E+03   -0.44509E-05   -0.14503E-07  1106   0.649E-04    0.182E-03
RMM:  39    -0.495910837300E+03   -0.17316E-05   -0.69156E-08  1009   0.462E-04    0.204E-03
RMM:  40    -0.495910838864E+03   -0.15640E-05   -0.49901E-08   923   0.393E-04    0.894E-04
RMM:  41    -0.495910839333E+03   -0.46905E-06   -0.16338E-08   665   0.312E-04
   8 F= -.53245535E+03 E0= -.53245532E+03  d E =-.175887E+00  mag=    89.3179
       N       E                     dE             d eps       ncg     rms          rms(c)
DAV:   1    -0.495871530086E+03    0.39309E-01   -0.17977E+01  2096   0.515E+00    0.181E+00
RMM:   2    -0.495945033396E+03   -0.73503E-01   -0.27027E-01  2100   0.122E+00    0.271E+00
RMM:   3    -0.496095048114E+03   -0.15001E+00   -0.14782E-01  2177   0.765E-01    0.692E+00
RMM:   4    -0.495984091659E+03    0.11096E+00   -0.61122E-02  2104   0.499E-01    0.390E+00
RMM:   5    -0.495937154577E+03    0.46937E-01   -0.26001E-02  2100   0.332E-01    0.117E+00
RMM:   6    -0.495934199356E+03    0.29552E-02   -0.56697E-03  2101   0.153E-01    0.673E-01
RMM:   7    -0.495934470553E+03   -0.27120E-03   -0.23921E-03  2100   0.976E-02    0.775E-01
RMM:   8    -0.495933054823E+03    0.14157E-02   -0.15896E-03  2101   0.809E-02    0.407E-01
RMM:   9    -0.495933073024E+03   -0.18201E-04   -0.12949E-03  2101   0.725E-02    0.471E-01
RMM:  10    -0.495933734734E+03   -0.66171E-03   -0.21132E-03  2100   0.877E-02    0.672E-01
RMM:  11    -0.495932680176E+03    0.10546E-02   -0.15248E-03  2105   0.778E-02    0.352E-01
RMM:  12    -0.495932484727E+03    0.19545E-03   -0.64591E-04  2102   0.503E-02    0.268E-01
RMM:  13    -0.495932349585E+03    0.13514E-03   -0.29180E-04  2100   0.338E-02    0.136E-01
RMM:  14    -0.495932343136E+03    0.64492E-05   -0.10094E-04  2099   0.208E-02    0.921E-02
RMM:  15    -0.495932349028E+03   -0.58917E-05   -0.43382E-05  2097   0.135E-02    0.631E-02
RMM:  16    -0.495932362901E+03   -0.13873E-04   -0.23336E-05  2096   0.974E-03    0.462E-02
RMM:  17    -0.495932382828E+03   -0.19927E-04   -0.14610E-05  2096   0.752E-03    0.359E-02
RMM:  18    -0.495932417169E+03   -0.34341E-04   -0.12165E-05  2095   0.679E-03    0.362E-02
RMM:  19    -0.495932445084E+03   -0.27916E-04   -0.83073E-06  2054   0.554E-03    0.250E-02
RMM:  20    -0.495932461666E+03   -0.16581E-04   -0.41791E-06  1673   0.420E-03    0.205E-02
RMM:  21    -0.495932480881E+03   -0.19215E-04   -0.25195E-06  1451   0.354E-03    0.160E-02
RMM:  22    -0.495932493040E+03   -0.12159E-04   -0.13728E-06  1227   0.277E-03    0.107E-02
RMM:  23    -0.495932510418E+03   -0.17378E-04   -0.86714E-07  1218   0.205E-03    0.114E-02
RMM:  24    -0.495932521324E+03   -0.10906E-04   -0.57705E-07  1191   0.179E-03    0.678E-03
RMM:  25    -0.495932532968E+03   -0.11645E-04   -0.31158E-07  1196   0.119E-03    0.650E-03
RMM:  26    -0.495932540526E+03   -0.75581E-05   -0.19316E-07  1178   0.102E-03    0.400E-03
RMM:  27    -0.495932548503E+03   -0.79761E-05   -0.11697E-07  1145   0.667E-04    0.470E-03
RMM:  28    -0.495932559121E+03   -0.10619E-04   -0.12400E-07  1188   0.679E-04    0.331E-03
RMM:  29    -0.495932570727E+03   -0.11606E-04   -0.14286E-07  1190   0.648E-04    0.423E-03
RMM:  30    -0.495932583312E+03   -0.12585E-04   -0.16651E-07  1210   0.704E-04    0.284E-03
RMM:  31    -0.495932595566E+03   -0.12254E-04   -0.18135E-07  1167   0.663E-04    0.362E-03
RMM:  32    -0.495932607207E+03   -0.11642E-04   -0.20457E-07  1191   0.690E-04    0.241E-03
RMM:  33    -0.495932613335E+03   -0.61278E-05   -0.12661E-07  1073   0.573E-04    0.275E-03
RMM:  34    -0.495932619215E+03   -0.58798E-05   -0.13344E-07  1080   0.546E-04    0.161E-03
RMM:  35    -0.495932621526E+03   -0.23114E-05   -0.66478E-08   966   0.441E-04    0.189E-03
RMM:  36    -0.495932623559E+03   -0.20330E-05   -0.59404E-08   926   0.400E-04    0.114E-03
RMM:  37    -0.495932624308E+03   -0.74926E-06   -0.30374E-08   822   0.345E-04
   9 F= -.53247586E+03 E0= -.53247574E+03  d E =-.196395E+00  mag=    89.2906
       N       E                     dE             d eps       ncg     rms          rms(c)
DAV:   1    -0.495891910653E+03    0.40713E-01   -0.31772E+01  2096   0.688E+00    0.259E+00
RMM:   2    -0.496052311420E+03   -0.16040E+00   -0.51996E-01  2100   0.173E+00    0.412E+00
RMM:   3    -0.496190200163E+03   -0.13789E+00   -0.28660E-01  2155   0.109E+00    0.688E+00
RMM:   4    -0.496072117188E+03    0.11808E+00   -0.11291E-01  2100   0.703E-01    0.412E+00
RMM:   5    -0.496023234017E+03    0.48883E-01   -0.29957E-02  2101   0.354E-01    0.206E+00
RMM:   6    -0.496012911391E+03    0.10323E-01   -0.10727E-02  2100   0.209E-01    0.988E-01
RMM:   7    -0.496013137852E+03   -0.22646E-03   -0.48143E-03  2100   0.137E-01    0.108E+00
RMM:   8    -0.496010163225E+03    0.29746E-02   -0.30174E-03  2100   0.113E-01    0.553E-01
RMM:   9    -0.496010283985E+03   -0.12076E-03   -0.25624E-03  2101   0.101E-01    0.674E-01
RMM:  10    -0.496010681441E+03   -0.39746E-03   -0.32139E-03  2100   0.109E-01    0.745E-01
RMM:  11    -0.496010447667E+03    0.23377E-03   -0.27354E-03  2105   0.102E-01    0.731E-01
RMM:  12    -0.496009600554E+03    0.84711E-03   -0.17184E-03  2100   0.828E-02    0.434E-01
RMM:  13    -0.496009046144E+03    0.55441E-03   -0.62559E-04  2100   0.515E-02    0.151E-01
RMM:  14    -0.496009043506E+03    0.26374E-05   -0.17203E-04  2100   0.265E-02    0.126E-01
RMM:  15    -0.496009018751E+03    0.24756E-04   -0.81506E-05  2099   0.187E-02    0.806E-02
RMM:  16    -0.496009012525E+03    0.62258E-05   -0.39824E-05  2096   0.127E-02    0.619E-02
RMM:  17    -0.496009015327E+03   -0.28018E-05   -0.27565E-05  2096   0.102E-02    0.486E-02
RMM:  18    -0.496009025963E+03   -0.10636E-04   -0.20614E-05  2096   0.883E-03    0.453E-02
RMM:  19    -0.496009031869E+03   -0.59055E-05   -0.13935E-05  2096   0.715E-03    0.305E-02
RMM:  20    -0.496009036831E+03   -0.49620E-05   -0.60027E-06  1809   0.495E-03    0.218E-02
RMM:  21    -0.496009043220E+03   -0.63890E-05   -0.30735E-06  1569   0.387E-03    0.167E-02
RMM:  22    -0.496009047173E+03   -0.39537E-05   -0.14557E-06  1217   0.287E-03    0.125E-02
RMM:  23    -0.496009051092E+03   -0.39191E-05   -0.67270E-07  1185   0.195E-03    0.832E-03
RMM:  24    -0.496009053582E+03   -0.24895E-05   -0.35063E-07  1164   0.139E-03    0.560E-03
RMM:  25    -0.496009057838E+03   -0.42561E-05   -0.20750E-07  1178   0.995E-04    0.584E-03
RMM:  26    -0.496009060262E+03   -0.24243E-05   -0.14078E-07  1161   0.880E-04    0.373E-03
RMM:  27    -0.496009063389E+03   -0.31270E-05   -0.91880E-08  1130   0.630E-04    0.408E-03
RMM:  28    -0.496009065763E+03   -0.23737E-05   -0.76065E-08  1115   0.633E-04    0.263E-03
RMM:  29    -0.496009068222E+03   -0.24589E-05   -0.52801E-08  1022   0.481E-04    0.296E-03
RMM:  30    -0.496009071358E+03   -0.31359E-05   -0.54104E-08  1053   0.483E-04    0.221E-03
RMM:  31    -0.496009073549E+03   -0.21909E-05   -0.41981E-08   982   0.428E-04    0.244E-03
RMM:  32    -0.496009077110E+03   -0.35613E-05   -0.57865E-08  1018   0.434E-04    0.215E-03
RMM:  33    -0.496009079033E+03   -0.19228E-05   -0.41269E-08   943   0.423E-04    0.171E-03
RMM:  34    -0.496009081726E+03   -0.26928E-05   -0.56914E-08   988   0.387E-04    0.180E-03
RMM:  35    -0.496009082786E+03   -0.10600E-05   -0.32253E-08   872   0.380E-04    0.134E-03
RMM:  36    -0.496009083904E+03   -0.11188E-05   -0.33255E-08   817   0.330E-04    0.150E-03
RMM:  37    -0.496009084357E+03   -0.45296E-06   -0.19354E-08   749   0.322E-04
  10 F= -.53254389E+03 E0= -.53254472E+03  d E =-.680374E-01  mag=    89.2643
       N       E                     dE             d eps       ncg     rms          rms(c)
DAV:   1    -0.495985095386E+03    0.23989E-01   -0.10655E+01  2096   0.398E+00    0.149E+00
RMM:   2    -0.496037124896E+03   -0.52030E-01   -0.16642E-01  2100   0.966E-01    0.231E+00
RMM:   3    -0.496082570060E+03   -0.45445E-01   -0.95300E-02  2150   0.626E-01    0.397E+00
RMM:   4    -0.496039074861E+03    0.43495E-01   -0.37790E-02  2100   0.410E-01    0.204E+00
RMM:   5    -0.496027705199E+03    0.11370E-01   -0.83935E-03  2103   0.188E-01    0.103E+00
RMM:   6    -0.496024983096E+03    0.27221E-02   -0.24987E-03  2102   0.100E-01    0.489E-01
RMM:   7    -0.496025084629E+03   -0.10153E-03   -0.12080E-03  2100   0.684E-02    0.575E-01
RMM:   8    -0.496024247174E+03    0.83745E-03   -0.86651E-04  2100   0.592E-02    0.309E-01
RMM:   9    -0.496024332971E+03   -0.85797E-04   -0.85634E-04  2100   0.579E-02    0.394E-01
RMM:  10    -0.496024572068E+03   -0.23910E-03   -0.11465E-03  2098   0.645E-02    0.461E-01
RMM:  11    -0.496024295491E+03    0.27658E-03   -0.86609E-04  2107   0.578E-02    0.370E-01
RMM:  12    -0.496024075076E+03    0.22042E-03   -0.47042E-04  2100   0.435E-02    0.219E-01
RMM:  13    -0.496023936616E+03    0.13846E-03   -0.16025E-04  2099   0.260E-02    0.748E-02
RMM:  14    -0.496023937818E+03   -0.12019E-05   -0.40364E-05  2098   0.128E-02    0.585E-02
RMM:  15    -0.496023938630E+03   -0.81194E-06   -0.19670E-05  2096   0.901E-03    0.411E-02
RMM:  16    -0.496023940638E+03   -0.20076E-05   -0.11095E-05  2090   0.656E-03    0.318E-02
RMM:  17    -0.496023945983E+03   -0.53452E-05   -0.90672E-06  2093   0.561E-03    0.267E-02
RMM:  18    -0.496023952149E+03   -0.61655E-05   -0.64842E-06  1896   0.489E-03    0.235E-02
RMM:  19    -0.496023956649E+03   -0.45001E-05   -0.42017E-06  1683   0.419E-03    0.180E-02
RMM:  20    -0.496023958686E+03   -0.20375E-05   -0.19495E-06  1253   0.325E-03    0.113E-02
RMM:  21    -0.496023960990E+03   -0.23035E-05   -0.98004E-07  1177   0.234E-03    0.863E-03
RMM:  22    -0.496023962409E+03   -0.14196E-05   -0.43127E-07  1163   0.160E-03    0.604E-03
RMM:  23    -0.496023964011E+03   -0.16017E-05   -0.18693E-07  1167   0.101E-03    0.448E-03
RMM:  24    -0.496023965013E+03   -0.10024E-05   -0.10119E-07  1156   0.751E-04    0.269E-03
RMM:  25    -0.496023966624E+03   -0.16111E-05   -0.56332E-08  1039   0.515E-04    0.311E-03
RMM:  26    -0.496023967874E+03   -0.12499E-05   -0.45187E-08  1066   0.496E-04    0.205E-03
RMM:  27    -0.496023969172E+03   -0.12978E-05   -0.28353E-08   899   0.377E-04    0.231E-03
RMM:  28    -0.496023970325E+03   -0.11524E-05   -0.23708E-08   857   0.372E-04    0.152E-03
RMM:  29    -0.496023971306E+03   -0.98158E-06   -0.17558E-08   761   0.330E-04
  11 F= -.53255452E+03 E0= -.53255589E+03  d E =-.786591E-01  mag=    89.2512
       N       E                     dE             d eps       ncg     rms          rms(c)
DAV:   1    -0.495953930331E+03    0.70040E-01   -0.31956E+01  2096   0.679E+00    0.240E+00
RMM:   2    -0.496096057173E+03   -0.14213E+00   -0.53338E-01  2100   0.174E+00    0.364E+00
RMM:   3    -0.496294898688E+03   -0.19884E+00   -0.24762E-01  2200   0.985E-01    0.752E+00
RMM:   4    -0.496160174140E+03    0.13472E+00   -0.96569E-02  2100   0.623E-01    0.536E+00
RMM:   5    -0.496076629233E+03    0.83545E-01   -0.45632E-02  2100   0.438E-01    0.196E+00
RMM:   6    -0.496069558481E+03    0.70708E-02   -0.12098E-02  2102   0.220E-01    0.103E+00
RMM:   7    -0.496068289921E+03    0.12686E-02   -0.45603E-03  2100   0.136E-01    0.847E-01
RMM:   8    -0.496066425173E+03    0.18647E-02   -0.26900E-03  2100   0.105E-01    0.520E-01
RMM:   9    -0.496066602958E+03   -0.17778E-03   -0.21622E-03  2104   0.909E-02    0.691E-01
RMM:  10    -0.496066658684E+03   -0.55727E-04   -0.25207E-03  2100   0.946E-02    0.639E-01
RMM:  11    -0.496066437448E+03    0.22124E-03   -0.26210E-03  2105   0.994E-02    0.632E-01
RMM:  12    -0.496065807774E+03    0.62967E-03   -0.17833E-03  2101   0.835E-02    0.418E-01
RMM:  13    -0.496065284816E+03    0.52296E-03   -0.62873E-04  2100   0.510E-02    0.162E-01
RMM:  14    -0.496065292694E+03   -0.78778E-05   -0.21765E-04  2101   0.295E-02    0.140E-01
RMM:  15    -0.496065263949E+03    0.28745E-04   -0.99732E-05  2100   0.207E-02    0.874E-02
RMM:  16    -0.496065248661E+03    0.15288E-04   -0.46263E-05  2096   0.137E-02    0.634E-02
RMM:  17    -0.496065243926E+03    0.47359E-05   -0.24549E-05  2096   0.995E-03    0.427E-02
RMM:  18    -0.496065253807E+03   -0.98819E-05   -0.19178E-05  2096   0.839E-03    0.460E-02
RMM:  19    -0.496065257365E+03   -0.35578E-05   -0.12936E-05  2096   0.702E-03    0.287E-02
RMM:  20    -0.496065260762E+03   -0.33965E-05   -0.63658E-06  1828   0.505E-03    0.253E-02
RMM:  21    -0.496065263333E+03   -0.25710E-05   -0.34870E-06  1618   0.413E-03    0.150E-02
RMM:  22    -0.496065266863E+03   -0.35298E-05   -0.18248E-06  1228   0.308E-03    0.158E-02
RMM:  23    -0.496065268629E+03   -0.17670E-05   -0.10718E-06  1167   0.253E-03    0.678E-03
RMM:  24    -0.496065271329E+03   -0.26997E-05   -0.51670E-07  1164   0.163E-03    0.878E-03
RMM:  25    -0.496065273593E+03   -0.22636E-05   -0.34265E-07  1163   0.145E-03    0.494E-03
RMM:  26    -0.496065274930E+03   -0.13367E-05   -0.14608E-07  1148   0.880E-04    0.472E-03
RMM:  27    -0.496065276979E+03   -0.20497E-05   -0.96642E-08  1153   0.710E-04    0.338E-03
RMM:  28    -0.496065278206E+03   -0.12264E-05   -0.51846E-08  1009   0.540E-04    0.238E-03
RMM:  29    -0.496065280416E+03   -0.22105E-05   -0.42244E-08  1019   0.439E-04    0.233E-03
RMM:  30    -0.496065281876E+03   -0.14597E-05   -0.28992E-08   956   0.415E-04    0.147E-03
RMM:  31    -0.496065283954E+03   -0.20783E-05   -0.23745E-08   857   0.333E-04    0.199E-03
RMM:  32    -0.496065286087E+03   -0.21326E-05   -0.20689E-08   781   0.333E-04    0.127E-03
RMM:  33    -0.496065288216E+03   -0.21290E-05   -0.16779E-08   680   0.306E-04    0.146E-03
RMM:  34    -0.496065290776E+03   -0.25606E-05   -0.22060E-08   674   0.303E-04    0.118E-03
RMM:  35    -0.496065292393E+03   -0.16170E-05   -0.14045E-08   596   0.293E-04    0.119E-03
RMM:  36    -0.496065294870E+03   -0.24766E-05   -0.26838E-08   644   0.298E-04    0.956E-04
RMM:  37    -0.496065296132E+03   -0.12623E-05   -0.17904E-08   613   0.289E-04    0.885E-04
RMM:  38    -0.496065297926E+03   -0.17941E-05   -0.31825E-08   674   0.295E-04    0.849E-04
RMM:  39    -0.496065298662E+03   -0.73537E-06   -0.16247E-08   577   0.278E-04
  12 F= -.53258736E+03 E0= -.53259002E+03  d E =-.328471E-01  mag=    89.2340
       N       E                     dE             d eps       ncg     rms          rms(c)
DAV:   1    -0.496065245904E+03    0.52023E-04   -0.12615E-03  2152   0.426E-02    0.148E-02
RMM:   2    -0.496065250588E+03   -0.46844E-05   -0.19346E-05  2093   0.101E-02    0.202E-02
RMM:   3    -0.496065258891E+03   -0.83033E-05   -0.94253E-06  2047   0.615E-03    0.473E-02
RMM:   4    -0.496065252835E+03    0.60565E-05   -0.36746E-06  1651   0.412E-03    0.313E-02
RMM:   5    -0.496065250342E+03    0.24932E-05   -0.14228E-06  1192   0.281E-03    0.104E-02
RMM:   6    -0.496065250505E+03   -0.16338E-06   -0.41603E-07  1155   0.140E-03
  13 F= -.53258737E+03 E0= -.53259002E+03  d E =-.328493E-01  mag=    89.2340
       N       E                     dE             d eps       ncg     rms          rms(c)
DAV:   1    -0.496022338982E+03    0.42911E-01   -0.21630E+01  2096   0.556E+00    0.197E+00
RMM:   2    -0.496111801726E+03   -0.89463E-01   -0.35395E-01  2100   0.138E+00    0.278E+00
RMM:   3    -0.496237655906E+03   -0.12585E+00   -0.17721E-01  2199   0.828E-01    0.620E+00
RMM:   4    -0.496133579544E+03    0.10408E+00   -0.69231E-02  2100   0.537E-01    0.321E+00
RMM:   5    -0.496105815938E+03    0.27764E-01   -0.20170E-02  2101   0.286E-01    0.156E+00
RMM:   6    -0.496101085723E+03    0.47302E-02   -0.64627E-03  2102   0.159E-01    0.838E-01
RMM:   7    -0.496099816162E+03    0.12696E-02   -0.27001E-03  2100   0.103E-01    0.644E-01
RMM:   8    -0.496098738802E+03    0.10774E-02   -0.14973E-03  2100   0.780E-02    0.394E-01
RMM:   9    -0.496098852486E+03   -0.11368E-03   -0.13075E-03  2105   0.692E-02    0.541E-01
RMM:  10    -0.496098733500E+03    0.11899E-03   -0.17180E-03  2100   0.761E-02    0.471E-01
RMM:  11    -0.496099062149E+03   -0.32865E-03   -0.17447E-03  2114   0.801E-02    0.608E-01
RMM:  12    -0.496098346722E+03    0.71543E-03   -0.12207E-03  2100   0.687E-02    0.312E-01
RMM:  13    -0.496098050254E+03    0.29647E-03   -0.37468E-04  2100   0.397E-02    0.111E-01
RMM:  14    -0.496098049621E+03    0.63280E-06   -0.10067E-04  2099   0.200E-02    0.964E-02
RMM:  15    -0.496098033822E+03    0.15799E-04   -0.45762E-05  2098   0.138E-02    0.590E-02
RMM:  16    -0.496098029177E+03    0.46449E-05   -0.24723E-05  2096   0.985E-03    0.511E-02
RMM:  17    -0.496098024871E+03    0.43063E-05   -0.16500E-05  2096   0.782E-03    0.323E-02
RMM:  18    -0.496098027453E+03   -0.25818E-05   -0.11860E-05  2092   0.655E-03    0.327E-02
RMM:  19    -0.496098028241E+03   -0.78832E-06   -0.80931E-06  2029   0.532E-03
  14 F= -.53261138E+03 E0= -.53261487E+03  d E =-.240163E-01  mag=    89.2235
       N       E                     dE             d eps       ncg     rms          rms(c)
DAV:   1    -0.496094725356E+03    0.33021E-02   -0.21580E+00  2104   0.175E+00    0.616E-01
RMM:   2    -0.496103398814E+03   -0.86735E-02   -0.33773E-02  2100   0.416E-01    0.865E-01
RMM:   3    -0.496115260207E+03   -0.11861E-01   -0.17989E-02  2191   0.265E-01    0.197E+00
RMM:   4    -0.496104354777E+03    0.10905E-01   -0.72268E-03  2100   0.175E-01    0.809E-01
RMM:   5    -0.496102659003E+03    0.16958E-02   -0.15943E-03  2103   0.808E-02    0.354E-01
RMM:   6    -0.496102445434E+03    0.21357E-03   -0.37868E-04  2104   0.378E-02    0.240E-01
RMM:   7    -0.496102339086E+03    0.10635E-03   -0.18205E-04  2100   0.264E-02    0.191E-01
RMM:   8    -0.496102243862E+03    0.95224E-04   -0.12650E-04  2099   0.221E-02    0.119E-01
RMM:   9    -0.496102264653E+03   -0.20791E-04   -0.13125E-04  2103   0.218E-02    0.170E-01
RMM:  10    -0.496102272189E+03   -0.75356E-05   -0.19038E-04  2100   0.247E-02    0.163E-01
RMM:  11    -0.496102276879E+03   -0.46904E-05   -0.16776E-04  2103   0.247E-02    0.176E-01
RMM:  12    -0.496102220793E+03    0.56086E-04   -0.10859E-04  2100   0.205E-02    0.896E-02
RMM:  13    -0.496102197403E+03    0.23391E-04   -0.30136E-05  2096   0.112E-02    0.306E-02
RMM:  14    -0.496102197989E+03   -0.58687E-06   -0.70254E-06  1846   0.535E-03
  15 F= -.53261291E+03 E0= -.53261665E+03  d E =-.255479E-01  mag=    89.2184
       N       E                     dE             d eps       ncg     rms          rms(c)
DAV:   1    -0.496072826189E+03    0.29371E-01   -0.14434E+01  2096   0.455E+00    0.171E+00
RMM:   2    -0.496136492388E+03   -0.63666E-01   -0.23283E-01  2100   0.111E+00    0.245E+00
RMM:   3    -0.496218423280E+03   -0.81931E-01   -0.13203E-01  2179   0.722E-01    0.549E+00
RMM:   4    -0.496149962535E+03    0.68461E-01   -0.56949E-02  2101   0.482E-01    0.282E+00
RMM:   5    -0.496132445447E+03    0.17517E-01   -0.14413E-02  2101   0.244E-01    0.125E+00
RMM:   6    -0.496127856818E+03    0.45886E-02   -0.41112E-03  2103   0.129E-01    0.614E-01
RMM:   7    -0.496127559590E+03    0.29723E-03   -0.19030E-03  2100   0.873E-02    0.581E-01
RMM:   8    -0.496126488718E+03    0.10709E-02   -0.10991E-03  2100   0.670E-02    0.312E-01
RMM:   9    -0.496126592328E+03   -0.10361E-03   -0.87501E-04  2103   0.580E-02    0.428E-01
RMM:  10    -0.496126701655E+03   -0.10933E-03   -0.12403E-03  2100   0.650E-02    0.465E-01
RMM:  11    -0.496126592113E+03    0.10954E-03   -0.11940E-03  2108   0.661E-02    0.438E-01
RMM:  12    -0.496126293935E+03    0.29818E-03   -0.70819E-04  2100   0.530E-02    0.253E-01
RMM:  13    -0.496126091356E+03    0.20258E-03   -0.24560E-04  2100   0.316E-02    0.983E-02
RMM:  14    -0.496126075316E+03    0.16040E-04   -0.65893E-05  2098   0.165E-02    0.763E-02
RMM:  15    -0.496126058470E+03    0.16846E-04   -0.29654E-05  2096   0.112E-02    0.476E-02
RMM:  16    -0.496126057141E+03    0.13297E-05   -0.17084E-05  2095   0.839E-03    0.431E-02
RMM:  17    -0.496126055744E+03    0.13970E-05   -0.11142E-05  2091   0.643E-03    0.299E-02
RMM:  18    -0.496126058300E+03   -0.25560E-05   -0.78702E-06  1955   0.545E-03    0.267E-02
RMM:  19    -0.496126058880E+03   -0.57993E-06   -0.54302E-06  1791   0.464E-03
  16 F= -.53262767E+03 E0= -.53263172E+03  d E =-.147575E-01  mag=    89.1906
       N       E                     dE             d eps       ncg     rms          rms(c)
DAV:   1    -0.496124344501E+03    0.17138E-02   -0.15171E+00  2104   0.147E+00    0.549E-01
RMM:   2    -0.496131053440E+03   -0.67089E-02   -0.23766E-02  2100   0.350E-01    0.808E-01
RMM:   3    -0.496140569886E+03   -0.95164E-02   -0.13904E-02  2174   0.234E-01    0.191E+00
RMM:   4    -0.496133524908E+03    0.70450E-02   -0.60835E-03  2102   0.157E-01    0.106E+00
RMM:   5    -0.496130496282E+03    0.30286E-02   -0.17595E-03  2101   0.861E-02    0.386E-01
RMM:   6    -0.496130038213E+03    0.45807E-03   -0.43528E-04  2101   0.421E-02    0.178E-01
RMM:   7    -0.496130016296E+03    0.21917E-04   -0.17288E-04  2099   0.263E-02    0.169E-01
RMM:   8    -0.496129935218E+03    0.81078E-04   -0.11010E-04  2101   0.205E-02    0.115E-01
RMM:   9    -0.496129935971E+03   -0.75303E-06   -0.89511E-05  2098   0.186E-02    0.134E-01
RMM:  10    -0.496129975096E+03   -0.39125E-04   -0.13974E-04  2100   0.217E-02    0.167E-01
RMM:  11    -0.496129939675E+03    0.35421E-04   -0.13270E-04  2104   0.220E-02    0.122E-01
RMM:  12    -0.496129921157E+03    0.18517E-04   -0.67298E-05  2099   0.164E-02    0.716E-02
RMM:  13    -0.496129906825E+03    0.14333E-04   -0.21514E-05  2088   0.918E-03    0.325E-02
RMM:  14    -0.496129904951E+03    0.18740E-05   -0.51216E-06  1751   0.471E-03    0.179E-02
RMM:  15    -0.496129906588E+03   -0.16373E-05   -0.22962E-06  1343   0.334E-03    0.157E-02
RMM:  16    -0.496129909277E+03   -0.26886E-05   -0.18820E-06  1210   0.311E-03    0.133E-02
RMM:  17    -0.496129913249E+03   -0.39725E-05   -0.15911E-06  1174   0.261E-03    0.112E-02
RMM:  18    -0.496129917078E+03   -0.38294E-05   -0.12165E-06  1159   0.249E-03    0.903E-03
RMM:  19    -0.496129921346E+03   -0.42673E-05   -0.81551E-07  1159   0.199E-03    0.788E-03
RMM:  20    -0.496129924530E+03   -0.31846E-05   -0.48320E-07  1158   0.166E-03    0.524E-03
RMM:  21    -0.496129928525E+03   -0.39950E-05   -0.24876E-07  1158   0.113E-03    0.606E-03
RMM:  22    -0.496129931445E+03   -0.29198E-05   -0.15208E-07  1158   0.925E-04    0.433E-03
RMM:  23    -0.496129935214E+03   -0.37690E-05   -0.92035E-08  1141   0.674E-04    0.375E-03
RMM:  24    -0.496129939352E+03   -0.41375E-05   -0.10192E-07  1130   0.707E-04    0.401E-03
RMM:  25    -0.496129945071E+03   -0.57193E-05   -0.11817E-07  1168   0.705E-04    0.392E-03
RMM:  26    -0.496129949238E+03   -0.41668E-05   -0.10511E-07  1157   0.710E-04    0.314E-03
RMM:  27    -0.496129953737E+03   -0.44995E-05   -0.98789E-08  1172   0.609E-04    0.276E-03
RMM:  28    -0.496129955958E+03   -0.22212E-05   -0.77150E-08  1089   0.591E-04    0.238E-03
RMM:  29    -0.496129957450E+03   -0.14913E-05   -0.78432E-08  1102   0.509E-04    0.284E-03
RMM:  30    -0.496129957539E+03   -0.89742E-07   -0.47035E-08  1032   0.474E-04
  17 F= -.53262871E+03 E0= -.53263288E+03  d E =-.157996E-01  mag=    89.1606
       N       E                     dE             d eps       ncg     rms          rms(c)
DAV:   1    -0.496112048026E+03    0.17909E-01   -0.83718E+00  2104   0.349E+00    0.131E+00
RMM:   2    -0.496146577856E+03   -0.34530E-01   -0.12781E-01  2100   0.828E-01    0.171E+00
RMM:   3    -0.496193716904E+03   -0.47139E-01   -0.75019E-02  2155   0.545E-01    0.414E+00
RMM:   4    -0.496153693605E+03    0.40023E-01   -0.33106E-02  2100   0.373E-01    0.191E+00
RMM:   5    -0.496145971812E+03    0.77218E-02   -0.70904E-03  2104   0.170E-01    0.819E-01
RMM:   6    -0.496144071083E+03    0.19007E-02   -0.17581E-03  2107   0.829E-02    0.387E-01
RMM:   7    -0.496144106586E+03   -0.35504E-04   -0.86772E-04  2100   0.585E-02    0.457E-01
RMM:   8    -0.496143431570E+03    0.67502E-03   -0.55120E-04  2101   0.477E-02    0.216E-01
RMM:   9    -0.496143508452E+03   -0.76881E-04   -0.53720E-04  2101   0.458E-02    0.315E-01
RMM:  10    -0.496143713485E+03   -0.20503E-03   -0.75484E-04  2101   0.507E-02    0.410E-01
RMM:  11    -0.496143420040E+03    0.29345E-03   -0.63555E-04  2111   0.485E-02    0.271E-01
RMM:  12    -0.496143294208E+03    0.12583E-03   -0.33343E-04  2100   0.364E-02    0.163E-01
RMM:  13    -0.496143221308E+03    0.72900E-04   -0.10233E-04  2099   0.205E-02    0.681E-02
RMM:  14    -0.496143216309E+03    0.49990E-05   -0.27364E-05  2096   0.106E-02    0.456E-02
RMM:  15    -0.496143214913E+03    0.13952E-05   -0.13155E-05  2095   0.732E-03    0.365E-02
RMM:  16    -0.496143212513E+03    0.24008E-05   -0.82390E-06  1962   0.582E-03    0.243E-02
RMM:  17    -0.496143213060E+03   -0.54746E-06   -0.59410E-06  1969   0.462E-03
  18 F= -.53263638E+03 E0= -.53264051E+03  d E =-.766990E-02  mag=    89.1526
       N       E                     dE             d eps       ncg     rms          rms(c)
DAV:   1    -0.496143225248E+03   -0.12736E-04   -0.37370E-01  2132   0.737E-01    0.276E-01
RMM:   2    -0.496144770381E+03   -0.15451E-02   -0.56144E-03  2101   0.170E-01    0.371E-01
RMM:   3    -0.496147021388E+03   -0.22510E-02   -0.34866E-03  2141   0.118E-01    0.918E-01
RMM:   4    -0.496145207700E+03    0.18137E-02   -0.15153E-03  2101   0.798E-02    0.447E-01
RMM:   5    -0.496144712393E+03    0.49531E-03   -0.33124E-04  2103   0.368E-02    0.161E-01
RMM:   6    -0.496144641991E+03    0.70402E-04   -0.79232E-05  2105   0.177E-02    0.755E-02
RMM:   7    -0.496144646450E+03   -0.44591E-05   -0.35599E-05  2096   0.118E-02    0.941E-02
RMM:   8    -0.496144621203E+03    0.25247E-04   -0.24902E-05  2096   0.992E-03    0.505E-02
RMM:   9    -0.496144624714E+03   -0.35104E-05   -0.23423E-05  2096   0.962E-03    0.661E-02
RMM:  10    -0.496144638327E+03   -0.13614E-04   -0.34028E-05  2096   0.107E-02    0.901E-02
RMM:  11    -0.496144619805E+03    0.18522E-04   -0.29705E-05  2097   0.105E-02    0.498E-02
RMM:  12    -0.496144617456E+03    0.23492E-05   -0.13208E-05  2010   0.722E-03    0.344E-02
RMM:  13    -0.496144614916E+03    0.25395E-05   -0.42641E-06  1687   0.421E-03    0.147E-02
RMM:  14    -0.496144614788E+03    0.12812E-06   -0.11288E-06  1180   0.252E-03
  19 F= -.53263664E+03 E0= -.53264077E+03  d E =-.792648E-02  mag=    89.1481
       N       E                     dE             d eps       ncg     rms          rms(c)
DAV:   1    -0.496129222528E+03    0.15392E-01   -0.65145E+00  2096   0.305E+00    0.114E+00
RMM:   2    -0.496154471233E+03   -0.25249E-01   -0.98433E-02  2100   0.727E-01    0.126E+00
RMM:   3    -0.496185246174E+03   -0.30775E-01   -0.50879E-02  2196   0.446E-01    0.296E+00
RMM:   4    -0.496156846846E+03    0.28399E-01   -0.21659E-02  2099   0.311E-01    0.100E+00
RMM:   5    -0.496154244126E+03    0.26027E-02   -0.37201E-03  2104   0.124E-01    0.377E-01
RMM:   6    -0.496154264952E+03   -0.20826E-04   -0.79374E-04  2107   0.526E-02    0.401E-01
RMM:   7    -0.496154096173E+03    0.16878E-03   -0.38774E-04  2100   0.383E-02    0.334E-01
RMM:   8    -0.496153742253E+03    0.35392E-03   -0.25165E-04  2101   0.320E-02    0.173E-01
RMM:   9    -0.496153958517E+03   -0.21626E-03   -0.40725E-04  2099   0.383E-02    0.319E-01
RMM:  10    -0.496153744107E+03    0.21441E-03   -0.62005E-04  2099   0.458E-02    0.250E-01
RMM:  11    -0.496153659675E+03    0.84432E-04   -0.38213E-04  2105   0.381E-02    0.206E-01
RMM:  12    -0.496153594644E+03    0.65031E-04   -0.15254E-04  2101   0.240E-02    0.146E-01
RMM:  13    -0.496153546218E+03    0.48426E-04   -0.56421E-05  2098   0.150E-02    0.529E-02
RMM:  14    -0.496153542463E+03    0.37550E-05   -0.16665E-05  2073   0.835E-03    0.380E-02
RMM:  15    -0.496153538224E+03    0.42389E-05   -0.83588E-06  1977   0.593E-03    0.298E-02
RMM:  16    -0.496153535913E+03    0.23111E-05   -0.49188E-06  1760   0.459E-03    0.194E-02
RMM:  17    -0.496153536159E+03   -0.24642E-06   -0.43286E-06  1740   0.402E-03
  20 F= -.53264204E+03 E0= -.53264637E+03  d E =-.539979E-02  mag=    89.1446
       N       E                     dE             d eps       ncg     rms          rms(c)
DAV:   1    -0.496151829909E+03    0.17060E-02   -0.90683E-01  2120   0.114E+00    0.424E-01
RMM:   2    -0.496155253175E+03   -0.34233E-02   -0.13426E-02  2100   0.265E-01    0.449E-01
RMM:   3    -0.496159676042E+03   -0.44229E-02   -0.70064E-03  2191   0.166E-01    0.112E+00
RMM:   4    -0.496155605749E+03    0.40703E-02   -0.29633E-03  2100   0.116E-01    0.350E-01
RMM:   5    -0.496155295083E+03    0.31067E-03   -0.47288E-04  2113   0.437E-02    0.128E-01
RMM:   6    -0.496155306086E+03   -0.11003E-04   -0.10103E-04  2112   0.187E-02    0.144E-01
RMM:   7    -0.496155283551E+03    0.22535E-04   -0.49831E-05  2096   0.136E-02    0.123E-01
RMM:   8    -0.496155234481E+03    0.49070E-04   -0.35000E-05  2097   0.119E-02    0.632E-02
RMM:   9    -0.496155270254E+03   -0.35773E-04   -0.60478E-05  2099   0.149E-02    0.124E-01
RMM:  10    -0.496155237586E+03    0.32669E-04   -0.89280E-05  2098   0.172E-02    0.916E-02
RMM:  11    -0.496155217371E+03    0.20214E-04   -0.46977E-05  2107   0.134E-02    0.464E-02
RMM:  12    -0.496155213960E+03    0.34117E-05   -0.15614E-05  2067   0.761E-03    0.326E-02
RMM:  13    -0.496155211951E+03    0.20090E-05   -0.42064E-06  1676   0.419E-03    0.198E-02
RMM:  14    -0.496155211684E+03    0.26683E-06   -0.14363E-06  1207   0.271E-03
  21 F= -.53264245E+03 E0= -.53264685E+03  d E =-.580800E-02  mag=    89.1430
       N       E                     dE             d eps       ncg     rms          rms(c)
DAV:   1    -0.496143556247E+03    0.11656E-01   -0.48490E+00  2096   0.262E+00    0.969E-01
RMM:   2    -0.496161303386E+03   -0.17747E-01   -0.73118E-02  2100   0.624E-01    0.945E-01
RMM:   3    -0.496185803031E+03   -0.24500E-01   -0.32758E-02  2238   0.351E-01    0.259E+00
RMM:   4    -0.496169922859E+03    0.15880E-01   -0.12991E-02  2101   0.231E-01    0.158E+00
RMM:   5    -0.496162471208E+03    0.74517E-02   -0.41944E-03  2101   0.131E-01    0.492E-01
RMM:   6    -0.496162000532E+03    0.47068E-03   -0.83403E-04  2106   0.553E-02    0.288E-01
RMM:   7    -0.496161936471E+03    0.64061E-04   -0.37470E-04  2100   0.375E-02    0.293E-01
RMM:   8    -0.496161623659E+03    0.31281E-03   -0.26049E-04  2100   0.322E-02    0.126E-01
RMM:   9    -0.496161802525E+03   -0.17887E-03   -0.38455E-04  2099   0.378E-02    0.285E-01
RMM:  10    -0.496161577906E+03    0.22462E-03   -0.50444E-04  2108   0.404E-02    0.194E-01
RMM:  11    -0.496161517813E+03    0.60093E-04   -0.23446E-04  2101   0.299E-02    0.138E-01
RMM:  12    -0.496161479806E+03    0.38007E-04   -0.86224E-05  2099   0.179E-02    0.876E-02
RMM:  13    -0.496161460343E+03    0.19463E-04   -0.26446E-05  2096   0.103E-02    0.421E-02
RMM:  14    -0.496161453854E+03    0.64895E-05   -0.10154E-05  1985   0.649E-03    0.306E-02
RMM:  15    -0.496161451568E+03    0.22855E-05   -0.55485E-06  1793   0.494E-03    0.225E-02
RMM:  16    -0.496161454541E+03   -0.29723E-05   -0.39856E-06  1662   0.405E-03    0.192E-02
RMM:  17    -0.496161458515E+03   -0.39739E-05   -0.32158E-06  1484   0.373E-03    0.146E-02
RMM:  18    -0.496161464375E+03   -0.58606E-05   -0.24929E-06  1289   0.339E-03    0.153E-02
RMM:  19    -0.496161469652E+03   -0.52769E-05   -0.17667E-06  1171   0.309E-03    0.943E-03
RMM:  20    -0.496161475271E+03   -0.56191E-05   -0.84652E-07  1159   0.212E-03    0.760E-03
RMM:  21    -0.496161481392E+03   -0.61212E-05   -0.43344E-07  1160   0.158E-03    0.552E-03
RMM:  22    -0.496161487425E+03   -0.60326E-05   -0.21158E-07  1160   0.107E-03    0.445E-03
RMM:  23    -0.496161493428E+03   -0.60034E-05   -0.11498E-07  1157   0.796E-04    0.279E-03
RMM:  24    -0.496161499774E+03   -0.63462E-05   -0.66783E-08  1070   0.571E-04    0.329E-03
RMM:  25    -0.496161509513E+03   -0.97381E-05   -0.74446E-08  1102   0.563E-04    0.299E-03
RMM:  26    -0.496161516001E+03   -0.64885E-05   -0.50571E-08  1018   0.474E-04    0.223E-03
RMM:  27    -0.496161527762E+03   -0.11761E-04   -0.73040E-08  1069   0.456E-04    0.253E-03
RMM:  28    -0.496161535854E+03   -0.80918E-05   -0.59553E-08  1052   0.483E-04    0.193E-03
RMM:  29    -0.496161547828E+03   -0.11975E-04   -0.82548E-08  1003   0.438E-04    0.227E-03
RMM:  30    -0.496161554694E+03   -0.68659E-05   -0.57184E-08   956   0.448E-04    0.154E-03
RMM:  31    -0.496161562677E+03   -0.79825E-05   -0.73962E-08  1004   0.406E-04    0.190E-03
RMM:  32    -0.496161566970E+03   -0.42932E-05   -0.46075E-08   884   0.391E-04    0.945E-04
RMM:  33    -0.496161570076E+03   -0.31065E-05   -0.39681E-08   779   0.328E-04    0.128E-03
RMM:  34    -0.496161571322E+03   -0.12455E-05   -0.32400E-08   731   0.320E-04    0.703E-04
RMM:  35    -0.496161571568E+03   -0.24591E-06   -0.12012E-08   496   0.273E-04
  22 F= -.53264643E+03 E0= -.53265091E+03  d E =-.398109E-02  mag=    89.1293
       N       E                     dE             d eps       ncg     rms          rms(c)
DAV:   1    -0.496159616255E+03    0.19551E-02   -0.90010E-01  2136   0.113E+00    0.416E-01
RMM:   2    -0.496162824252E+03   -0.32080E-02   -0.13354E-02  2100   0.265E-01    0.387E-01
RMM:   3    -0.496166800739E+03   -0.39765E-02   -0.59299E-03  2239   0.150E-01    0.103E+00
RMM:   4    -0.496164174975E+03    0.26258E-02   -0.23172E-03  2101   0.990E-02    0.614E-01
RMM:   5    -0.496163068406E+03    0.11066E-02   -0.60239E-04  2105   0.490E-02    0.180E-01
RMM:   6    -0.496163017031E+03    0.51374E-04   -0.13331E-04  2103   0.223E-02    0.114E-01
RMM:   7    -0.496163008540E+03    0.84912E-05   -0.58731E-05  2099   0.146E-02    0.128E-01
RMM:   8    -0.496162953292E+03    0.55248E-04   -0.44024E-05  2097   0.131E-02    0.547E-02
RMM:   9    -0.496162991900E+03   -0.38608E-04   -0.75638E-05  2098   0.167E-02    0.130E-01
RMM:  10    -0.496162941107E+03    0.50793E-04   -0.96090E-05  2108   0.175E-02    0.831E-02
RMM:  11    -0.496162927806E+03    0.13301E-04   -0.37594E-05  2096   0.120E-02    0.520E-02
RMM:  12    -0.496162924110E+03    0.36961E-05   -0.14236E-05  2068   0.720E-03    0.396E-02
RMM:  13    -0.496162919458E+03    0.46528E-05   -0.45410E-06  1716   0.439E-03    0.162E-02
RMM:  14    -0.496162918041E+03    0.14167E-05   -0.15320E-06  1214   0.285E-03    0.119E-02
RMM:  15    -0.496162917311E+03    0.72943E-06   -0.10129E-06  1158   0.228E-03
  23 F= -.53264679E+03 E0= -.53265131E+03  d E =-.434108E-02  mag=    89.1268
       N       E                     dE             d eps       ncg     rms          rms(c)
DAV:   1    -0.496152300617E+03    0.10617E-01   -0.37854E+00  2096   0.232E+00    0.920E-01
RMM:   2    -0.496167892565E+03   -0.15592E-01   -0.56021E-02  2100   0.538E-01    0.103E+00
RMM:   3    -0.496198803614E+03   -0.30911E-01   -0.33717E-02  2172   0.358E-01    0.332E+00
RMM:   4    -0.496174215866E+03    0.24588E-01   -0.15164E-02  2101   0.247E-01    0.144E+00
RMM:   5    -0.496168431669E+03    0.57842E-02   -0.39118E-03  2100   0.127E-01    0.510E-01
RMM:   6    -0.496167835149E+03    0.59652E-03   -0.83031E-04  2102   0.559E-02    0.293E-01
RMM:   7    -0.496167768183E+03    0.66966E-04   -0.38693E-04  2099   0.391E-02    0.291E-01
RMM:   8    -0.496167460595E+03    0.30759E-03   -0.23801E-04  2098   0.312E-02    0.125E-01
RMM:   9    -0.496167578183E+03   -0.11759E-03   -0.24612E-04  2101   0.304E-02    0.252E-01
RMM:  10    -0.496167499412E+03    0.78771E-04   -0.37420E-04  2100   0.347E-02    0.233E-01
RMM:  11    -0.496167371457E+03    0.12796E-03   -0.23241E-04  2100   0.296E-02    0.126E-01
RMM:  12    -0.496167342057E+03    0.29399E-04   -0.92422E-05  2101   0.187E-02    0.863E-02
RMM:  13    -0.496167322931E+03    0.19127E-04   -0.29010E-05  2096   0.108E-02    0.329E-02
RMM:  14    -0.496167322766E+03    0.16469E-06   -0.86129E-06  1883   0.605E-03
  24 F= -.53265007E+03 E0= -.53265447E+03  d E =-.328187E-02  mag=    89.1192
       N       E                     dE             d eps       ncg     rms          rms(c)
DAV:   1    -0.496157131722E+03    0.10191E-01   -0.30242E+00  2104   0.207E+00    0.822E-01
RMM:   2    -0.496169595826E+03   -0.12464E-01   -0.44775E-02  2101   0.480E-01    0.922E-01
RMM:   3    -0.496194340474E+03   -0.24745E-01   -0.27158E-02  2172   0.321E-01    0.297E+00
RMM:   4    -0.496174800001E+03    0.19540E-01   -0.12125E-02  2100   0.221E-01    0.130E+00
RMM:   5    -0.496170040098E+03    0.47599E-02   -0.31625E-03  2100   0.114E-01    0.451E-01
RMM:   6    -0.496169571938E+03    0.46816E-03   -0.66555E-04  2102   0.501E-02    0.261E-01
RMM:   7    -0.496169522630E+03    0.49308E-04   -0.30817E-04  2099   0.349E-02    0.261E-01
RMM:   8    -0.496169278964E+03    0.24367E-03   -0.18983E-04  2097   0.280E-02    0.112E-01
RMM:   9    -0.496169363659E+03   -0.84695E-04   -0.19574E-04  2101   0.272E-02    0.219E-01
RMM:  10    -0.496169337889E+03    0.25770E-04   -0.29668E-04  2100   0.312E-02    0.222E-01
RMM:  11    -0.496169217104E+03    0.12078E-03   -0.19438E-04  2099   0.271E-02    0.106E-01
RMM:  12    -0.496169202989E+03    0.14116E-04   -0.73731E-05  2101   0.167E-02    0.773E-02
RMM:  13    -0.496169191962E+03    0.11026E-04   -0.23150E-05  2091   0.963E-03    0.296E-02
RMM:  14    -0.496169194179E+03   -0.22166E-05   -0.66396E-06  1822   0.536E-03    0.252E-02
RMM:  15    -0.496169199448E+03   -0.52692E-05   -0.35548E-06  1641   0.415E-03    0.163E-02
RMM:  16    -0.496169208284E+03   -0.88359E-05   -0.23004E-06  1303   0.328E-03    0.159E-02
RMM:  17    -0.496169220933E+03   -0.12649E-04   -0.21251E-06  1232   0.313E-03    0.115E-02
RMM:  18    -0.496169233602E+03   -0.12670E-04   -0.16451E-06  1184   0.280E-03    0.128E-02
RMM:  19    -0.496169244404E+03   -0.10802E-04   -0.11161E-06  1170   0.243E-03    0.780E-03
RMM:  20    -0.496169253566E+03   -0.91613E-05   -0.55719E-07  1164   0.169E-03    0.693E-03
RMM:  21    -0.496169263741E+03   -0.10175E-04   -0.32859E-07  1167   0.135E-03    0.552E-03
RMM:  22    -0.496169271522E+03   -0.77816E-05   -0.16271E-07  1162   0.914E-04    0.426E-03
RMM:  23    -0.496169280908E+03   -0.93861E-05   -0.10746E-07  1132   0.730E-04    0.311E-03
RMM:  24    -0.496169292140E+03   -0.11232E-04   -0.96017E-08  1115   0.636E-04    0.416E-03
RMM:  25    -0.496169304169E+03   -0.12030E-04   -0.97695E-08  1126   0.635E-04    0.292E-03
RMM:  26    -0.496169315249E+03   -0.11080E-04   -0.84334E-08  1075   0.554E-04    0.287E-03
RMM:  27    -0.496169330819E+03   -0.15570E-04   -0.11471E-07  1149   0.563E-04    0.241E-03
RMM:  28    -0.496169342175E+03   -0.11356E-04   -0.10163E-07  1128   0.557E-04    0.300E-03
RMM:  29    -0.496169356190E+03   -0.14014E-04   -0.14285E-07  1124   0.580E-04    0.206E-03
RMM:  30    -0.496169361963E+03   -0.57732E-05   -0.75040E-08  1011   0.488E-04    0.212E-03
RMM:  31    -0.496169368492E+03   -0.65293E-05   -0.86804E-08   960   0.435E-04    0.173E-03
RMM:  32    -0.496169370076E+03   -0.15840E-05   -0.38041E-08   854   0.382E-04    0.121E-03
RMM:  33    -0.496169371283E+03   -0.12064E-05   -0.44781E-08   829   0.336E-04    0.117E-03
RMM:  34    -0.496169371322E+03   -0.38992E-07   -0.15495E-08   662   0.304E-04
  25 F= -.53265118E+03 E0= -.53265546E+03  d E =-.439336E-02  mag=    89.1001
       N       E                     dE             d eps       ncg     rms          rms(c)
DAV:   1    -0.496157662260E+03    0.11709E-01   -0.33516E+00  2128   0.220E+00    0.926E-01
RMM:   2    -0.496172206704E+03   -0.14544E-01   -0.47682E-02  2100   0.497E-01    0.929E-01
RMM:   3    -0.496192179137E+03   -0.19972E-01   -0.28480E-02  2160   0.337E-01    0.246E+00
RMM:   4    -0.496175359267E+03    0.16820E-01   -0.12832E-02  2100   0.238E-01    0.110E+00
RMM:   5    -0.496172378058E+03    0.29812E-02   -0.26714E-03  2103   0.105E-01    0.299E-01
RMM:   6    -0.496172280350E+03    0.97708E-04   -0.55401E-04  2104   0.463E-02    0.234E-01
RMM:   7    -0.496172179620E+03    0.10073E-03   -0.23647E-04  2101   0.297E-02    0.237E-01
RMM:   8    -0.496172085144E+03    0.94476E-04   -0.16879E-04  2100   0.257E-02    0.176E-01
RMM:   9    -0.496172262095E+03   -0.17695E-03   -0.18391E-04  2099   0.258E-02    0.273E-01
RMM:  10    -0.496172153345E+03    0.10875E-03   -0.25427E-04  2099   0.304E-02    0.221E-01
RMM:  11    -0.496172036786E+03    0.11656E-03   -0.20646E-04  2100   0.279E-02    0.140E-01
RMM:  12    -0.496171996380E+03    0.40405E-04   -0.93899E-05  2099   0.189E-02    0.101E-01
RMM:  13    -0.496171967101E+03    0.29279E-04   -0.33035E-05  2096   0.114E-02    0.296E-02
RMM:  14    -0.496171968626E+03   -0.15246E-05   -0.75745E-06  1848   0.560E-03    0.282E-02
RMM:  15    -0.496171966627E+03    0.19985E-05   -0.37500E-06  1654   0.427E-03    0.141E-02
RMM:  16    -0.496171967298E+03   -0.67080E-06   -0.18743E-06  1257   0.298E-03
  26 F= -.53265409E+03 E0= -.53265845E+03  d E =-.291274E-02  mag=    89.1000
       N       E                     dE             d eps       ncg     rms          rms(c)
DAV:   1    -0.496156244137E+03    0.15722E-01   -0.38032E+00  2096   0.235E+00    0.986E-01
RMM:   2    -0.496172714591E+03   -0.16470E-01   -0.54260E-02  2100   0.530E-01    0.987E-01
RMM:   3    -0.496195712515E+03   -0.22998E-01   -0.32334E-02  2163   0.359E-01    0.266E+00
RMM:   4    -0.496176429355E+03    0.19283E-01   -0.14623E-02  2100   0.253E-01    0.118E+00
RMM:   5    -0.496172978163E+03    0.34512E-02   -0.31170E-03  2101   0.113E-01    0.317E-01
RMM:   6    -0.496172886892E+03    0.91271E-04   -0.64237E-04  2103   0.500E-02    0.246E-01
RMM:   7    -0.496172912530E+03   -0.25638E-04   -0.23625E-04  2101   0.296E-02    0.279E-01
RMM:   8    -0.496172645180E+03    0.26735E-03   -0.15213E-04  2101   0.246E-02    0.187E-01
RMM:   9    -0.496172690437E+03   -0.45257E-04   -0.22611E-04  2100   0.291E-02    0.256E-01
RMM:  10    -0.496172681645E+03    0.87919E-05   -0.32600E-04  2098   0.338E-02    0.240E-01
RMM:  11    -0.496172578574E+03    0.10307E-03   -0.24755E-04  2107   0.305E-02    0.147E-01
RMM:  12    -0.496172540780E+03    0.37794E-04   -0.11176E-04  2098   0.206E-02    0.111E-01
RMM:  13    -0.496172505780E+03    0.35000E-04   -0.38393E-05  2096   0.123E-02    0.319E-02
RMM:  14    -0.496172507749E+03   -0.19686E-05   -0.89304E-06  1877   0.606E-03    0.315E-02
RMM:  15    -0.496172505191E+03    0.25573E-05   -0.43444E-06  1706   0.456E-03    0.152E-02
RMM:  16    -0.496172505964E+03   -0.77242E-06   -0.21115E-06  1307   0.315E-03
  27 F= -.53265505E+03 E0= -.53265947E+03  d E =-.386482E-02  mag=    89.0998
       N       E                     dE             d eps       ncg     rms          rms(c)
DAV:   1    -0.496164672990E+03    0.78322E-02   -0.25045E+00  2096   0.190E+00    0.782E-01
RMM:   2    -0.496174770834E+03   -0.10098E-01   -0.35159E-02  2101   0.423E-01    0.697E-01
RMM:   3    -0.496195912693E+03   -0.21142E-01   -0.18152E-02  2197   0.264E-01    0.248E+00
RMM:   4    -0.496179628426E+03    0.16284E-01   -0.74150E-03  2102   0.174E-01    0.115E+00
RMM:   5    -0.496175556784E+03    0.40716E-02   -0.29106E-03  2100   0.112E-01    0.320E-01
RMM:   6    -0.496175396588E+03    0.16020E-03   -0.48349E-04  2101   0.426E-02    0.230E-01
RMM:   7    -0.496175372897E+03    0.23691E-04   -0.23304E-04  2099   0.298E-02    0.237E-01
RMM:   8    -0.496175198686E+03    0.17421E-03   -0.16463E-04  2100   0.260E-02    0.102E-01
RMM:   9    -0.496175251439E+03   -0.52753E-04   -0.17574E-04  2098   0.257E-02    0.175E-01
RMM:  10    -0.496175221320E+03    0.30118E-04   -0.23292E-04  2101   0.286E-02    0.158E-01
RMM:  11    -0.496175161962E+03    0.59358E-04   -0.13218E-04  2117   0.225E-02    0.968E-02
RMM:  12    -0.496175137786E+03    0.24176E-04   -0.47263E-05  2097   0.135E-02    0.521E-02
RMM:  13    -0.496175134961E+03    0.28253E-05   -0.11981E-05  1991   0.685E-03    0.345E-02
RMM:  14    -0.496175134939E+03    0.22257E-07   -0.50022E-06  1747   0.464E-03
  28 F= -.53265719E+03 E0= -.53266165E+03  d E =-.214130E-02  mag=    89.1023
       N       E                     dE             d eps       ncg     rms          rms(c)
DAV:   1    -0.496141826221E+03    0.33309E-01   -0.82725E+00  2096   0.346E+00    0.143E+00
RMM:   2    -0.496176464820E+03   -0.34639E-01   -0.11937E-01  2101   0.787E-01    0.138E+00
RMM:   3    -0.496272563227E+03   -0.96098E-01   -0.63649E-02  2184   0.491E-01    0.531E+00
RMM:   4    -0.496190468216E+03    0.82095E-01   -0.27659E-02  2101   0.336E-01    0.209E+00
RMM:   5    -0.496178159730E+03    0.12308E-01   -0.11662E-02  2099   0.226E-01    0.635E-01
RMM:   6    -0.496177598458E+03    0.56127E-03   -0.19849E-03  2099   0.877E-02    0.483E-01
RMM:   7    -0.496177463175E+03    0.13528E-03   -0.93830E-04  2100   0.599E-02    0.474E-01
RMM:   8    -0.496176824991E+03    0.63818E-03   -0.60767E-04  2101   0.504E-02    0.213E-01
RMM:   9    -0.496176959854E+03   -0.13486E-03   -0.54461E-04  2098   0.456E-02    0.325E-01
RMM:  10    -0.496176965636E+03   -0.57826E-05   -0.68650E-04  2101   0.492E-02    0.332E-01
RMM:  11    -0.496176724560E+03    0.24108E-03   -0.53266E-04  2106   0.449E-02    0.237E-01
RMM:  12    -0.496176587520E+03    0.13704E-03   -0.25149E-04  2100   0.313E-02    0.130E-01
RMM:  13    -0.496176550908E+03    0.36612E-04   -0.76186E-05  2099   0.173E-02    0.709E-02
RMM:  14    -0.496176554796E+03   -0.38882E-05   -0.28813E-05  2096   0.108E-02    0.526E-02
RMM:  15    -0.496176556352E+03   -0.15557E-05   -0.13188E-05  2042   0.758E-03    0.290E-02
RMM:  16    -0.496176560861E+03   -0.45090E-05   -0.52759E-06  1776   0.471E-03    0.234E-02
RMM:  17    -0.496176566531E+03   -0.56704E-05   -0.39811E-06  1668   0.427E-03    0.202E-02
RMM:  18    -0.496176575298E+03   -0.87672E-05   -0.33858E-06  1598   0.388E-03    0.174E-02
RMM:  19    -0.496176584603E+03   -0.93045E-05   -0.25821E-06  1358   0.357E-03    0.145E-02
RMM:  20    -0.496176590009E+03   -0.54058E-05   -0.15532E-06  1187   0.288E-03    0.120E-02
RMM:  21    -0.496176594919E+03   -0.49103E-05   -0.87107E-07  1168   0.221E-03    0.733E-03
RMM:  22    -0.496176597648E+03   -0.27292E-05   -0.40191E-07  1158   0.150E-03    0.620E-03
RMM:  23    -0.496176601679E+03   -0.40313E-05   -0.22767E-07  1163   0.111E-03    0.390E-03
RMM:  24    -0.496176605047E+03   -0.33681E-05   -0.13066E-07  1151   0.848E-04    0.388E-03
RMM:  25    -0.496176608185E+03   -0.31379E-05   -0.68610E-08  1085   0.630E-04    0.269E-03
RMM:  26    -0.496176610098E+03   -0.19132E-05   -0.33120E-08   951   0.445E-04    0.205E-03
RMM:  27    -0.496176613506E+03   -0.34073E-05   -0.28457E-08   944   0.385E-04    0.209E-03
RMM:  28    -0.496176615859E+03   -0.23529E-05   -0.26013E-08   940   0.386E-04    0.167E-03
RMM:  29    -0.496176620220E+03   -0.43612E-05   -0.35573E-08  1001   0.369E-04    0.202E-03
RMM:  30    -0.496176623315E+03   -0.30947E-05   -0.26686E-08   955   0.379E-04    0.128E-03
RMM:  31    -0.496176627750E+03   -0.44352E-05   -0.26945E-08   844   0.330E-04    0.164E-03
RMM:  32    -0.496176630945E+03   -0.31952E-05   -0.19832E-08   780   0.326E-04    0.107E-03
RMM:  33    -0.496176633312E+03   -0.23670E-05   -0.15954E-08   646   0.299E-04    0.137E-03
RMM:  34    -0.496176635859E+03   -0.25476E-05   -0.17201E-08   631   0.284E-04    0.760E-04
RMM:  35    -0.496176636756E+03   -0.89662E-06   -0.79889E-09   512   0.267E-04
  29 F= -.53265790E+03 E0= -.53266241E+03  d E =-.285668E-02  mag=    89.1147
       N       E                     dE             d eps       ncg     rms          rms(c)
DAV:   1    -0.496173006753E+03    0.36291E-02   -0.86698E-01  2132   0.112E+00    0.459E-01
RMM:   2    -0.496176497699E+03   -0.34909E-02   -0.12122E-02  2101   0.249E-01    0.413E-01
RMM:   3    -0.496181793026E+03   -0.52953E-02   -0.62267E-03  2204   0.156E-01    0.122E+00
RMM:   4    -0.496178436430E+03    0.33566E-02   -0.25490E-03  2100   0.103E-01    0.735E-01
RMM:   5    -0.496176740585E+03    0.16958E-02   -0.84076E-04  2103   0.601E-02    0.174E-01
RMM:   6    -0.496176693116E+03    0.47469E-04   -0.15632E-04  2102   0.245E-02    0.115E-01
RMM:   7    -0.496176696225E+03   -0.31082E-05   -0.67885E-05  2098   0.159E-02    0.144E-01
RMM:   8    -0.496176634284E+03    0.61940E-04   -0.52589E-05  2096   0.146E-02    0.594E-02
RMM:   9    -0.496176658327E+03   -0.24043E-04   -0.59816E-05  2101   0.152E-02    0.109E-01
RMM:  10    -0.496176659981E+03   -0.16534E-05   -0.84996E-05  2107   0.173E-02    0.114E-01
RMM:  11    -0.496176620207E+03    0.39773E-04   -0.40390E-05  2119   0.125E-02    0.426E-02
RMM:  12    -0.496176617569E+03    0.26380E-05   -0.11386E-05  1964   0.651E-03    0.344E-02
RMM:  13    -0.496176614767E+03    0.28019E-05   -0.40535E-06  1678   0.417E-03    0.187E-02
RMM:  14    -0.496176614658E+03    0.10892E-06   -0.16182E-06  1237   0.300E-03
  30 F= -.53265812E+03 E0= -.53266262E+03  d E =-.307508E-02  mag=    89.1131
       N       E                     dE             d eps       ncg     rms          rms(c)
DAV:   1    -0.496169290310E+03    0.73245E-02   -0.25931E+00  2100   0.193E+00    0.773E-01
RMM:   2    -0.496179962584E+03   -0.10672E-01   -0.36744E-02  2099   0.436E-01    0.802E-01
RMM:   3    -0.496214570979E+03   -0.34608E-01   -0.20856E-02  2166   0.280E-01    0.325E+00
RMM:   4    -0.496183743750E+03    0.30827E-01   -0.95092E-03  2100   0.197E-01    0.113E+00
RMM:   5    -0.496180306124E+03    0.34376E-02   -0.35242E-03  2100   0.124E-01    0.388E-01
RMM:   6    -0.496180040146E+03    0.26598E-03   -0.58176E-04  2100   0.473E-02    0.231E-01
RMM:   7    -0.496180026984E+03    0.13161E-04   -0.26219E-04  2099   0.320E-02    0.244E-01
RMM:   8    -0.496179841464E+03    0.18552E-03   -0.17692E-04  2102   0.269E-02    0.118E-01
RMM:   9    -0.496179871292E+03   -0.29827E-04   -0.16514E-04  2098   0.254E-02    0.164E-01
RMM:  10    -0.496179905820E+03   -0.34529E-04   -0.23510E-04  2100   0.284E-02    0.202E-01
RMM:  11    -0.496179792853E+03    0.11297E-03   -0.15559E-04  2111   0.241E-02    0.118E-01
RMM:  12    -0.496179758493E+03    0.34360E-04   -0.61488E-05  2098   0.156E-02    0.617E-02
RMM:  13    -0.496179751362E+03    0.71307E-05   -0.19143E-05  2088   0.862E-03    0.381E-02
RMM:  14    -0.496179750236E+03    0.11256E-05   -0.70063E-06  1827   0.550E-03    0.234E-02
RMM:  15    -0.496179751658E+03   -0.14214E-05   -0.29820E-06  1566   0.386E-03    0.159E-02
RMM:  16    -0.496179752310E+03   -0.65254E-06   -0.15047E-06  1196   0.276E-03
  31 F= -.53266040E+03 E0= -.53266489E+03  d E =-.227845E-02  mag=    89.1172
       N       E                     dE             d eps       ncg     rms          rms(c)
DAV:   1    -0.496139414005E+03    0.40338E-01   -0.10656E+01  2096   0.391E+00    0.158E+00
RMM:   2    -0.496185300472E+03   -0.45886E-01   -0.15716E-01  2100   0.912E-01    0.176E+00
RMM:   3    -0.496345926479E+03   -0.16063E+00   -0.87434E-02  2169   0.570E-01    0.702E+00
RMM:   4    -0.496199023277E+03    0.14690E+00   -0.41429E-02  2100   0.410E-01    0.233E+00
RMM:   5    -0.496185289927E+03    0.13733E-01   -0.16285E-02  2100   0.266E-01    0.850E-01
RMM:   6    -0.496184230182E+03    0.10597E-02   -0.29590E-03  2100   0.108E-01    0.564E-01
RMM:   7    -0.496184036685E+03    0.19350E-03   -0.13440E-03  2100   0.728E-02    0.542E-01
RMM:   8    -0.496183202586E+03    0.83410E-03   -0.82156E-04  2100   0.589E-02    0.267E-01
RMM:   9    -0.496183290377E+03   -0.87791E-04   -0.64925E-04  2100   0.505E-02    0.344E-01
RMM:  10    -0.496183384360E+03   -0.93983E-04   -0.85403E-04  2103   0.545E-02    0.400E-01
RMM:  11    -0.496182972956E+03    0.41140E-03   -0.70897E-04  2104   0.517E-02    0.259E-01
RMM:  12    -0.496182792671E+03    0.18029E-03   -0.36777E-04  2099   0.380E-02    0.143E-01
RMM:  13    -0.496182758134E+03    0.34537E-04   -0.11984E-04  2099   0.218E-02    0.931E-02
RMM:  14    -0.496182758242E+03   -0.10828E-06   -0.47631E-05  2096   0.142E-02    0.625E-02
RMM:  15    -0.496182762852E+03   -0.46104E-05   -0.19566E-05  2096   0.926E-03    0.349E-02
RMM:  16    -0.496182768379E+03   -0.55271E-05   -0.80584E-06  1891   0.583E-03    0.295E-02
RMM:  17    -0.496182778339E+03   -0.99600E-05   -0.56015E-06  1805   0.497E-03    0.240E-02
RMM:  18    -0.496182791294E+03   -0.12954E-04   -0.42428E-06  1708   0.437E-03    0.226E-02
RMM:  19    -0.496182806565E+03   -0.15271E-04   -0.33619E-06  1579   0.394E-03    0.167E-02
RMM:  20    -0.496182818389E+03   -0.11824E-04   -0.20425E-06  1280   0.323E-03    0.137E-02
RMM:  21    -0.496182829113E+03   -0.10723E-04   -0.12054E-06  1183   0.263E-03    0.924E-03
RMM:  22    -0.496182835785E+03   -0.66718E-05   -0.62090E-07  1166   0.184E-03    0.827E-03
RMM:  23    -0.496182845933E+03   -0.10149E-04   -0.41767E-07  1169   0.149E-03    0.628E-03
RMM:  24    -0.496182853625E+03   -0.76915E-05   -0.25326E-07  1166   0.118E-03    0.544E-03
RMM:  25    -0.496182861207E+03   -0.75825E-05   -0.13413E-07  1159   0.866E-04    0.405E-03
RMM:  26    -0.496182865973E+03   -0.47655E-05   -0.80953E-08  1075   0.652E-04    0.384E-03
RMM:  27    -0.496182874330E+03   -0.83577E-05   -0.80267E-08  1125   0.581E-04    0.370E-03
RMM:  28    -0.496182881184E+03   -0.68539E-05   -0.74762E-08  1120   0.605E-04    0.289E-03
RMM:  29    -0.496182892994E+03   -0.11810E-04   -0.10627E-07  1166   0.594E-04    0.368E-03
RMM:  30    -0.496182901956E+03   -0.89619E-05   -0.10034E-07  1158   0.658E-04    0.236E-03
RMM:  31    -0.496182912142E+03   -0.10186E-04   -0.10504E-07  1111   0.559E-04    0.315E-03
RMM:  32    -0.496182918836E+03   -0.66946E-05   -0.89056E-08  1126   0.586E-04    0.167E-03
RMM:  33    -0.496182922661E+03   -0.38242E-05   -0.55831E-08   987   0.436E-04    0.215E-03
RMM:  34    -0.496182925438E+03   -0.27771E-05   -0.49677E-08   953   0.412E-04    0.108E-03
RMM:  35    -0.496182926157E+03   -0.71974E-06   -0.26294E-08   763   0.326E-04
  32 F= -.53266194E+03 E0= -.53266642E+03  d E =-.382189E-02  mag=    89.1402
       N       E                     dE             d eps       ncg     rms          rms(c)
DAV:   1    -0.496167048436E+03    0.15877E-01   -0.44368E+00  2112   0.252E+00    0.101E+00
RMM:   2    -0.496185253823E+03   -0.18205E-01   -0.63050E-02  2100   0.572E-01    0.108E+00
RMM:   3    -0.496231114353E+03   -0.45861E-01   -0.36589E-02  2172   0.374E-01    0.378E+00
RMM:   4    -0.496194608227E+03    0.36506E-01   -0.15734E-02  2098   0.255E-01    0.171E+00
RMM:   5    -0.496185733516E+03    0.88747E-02   -0.60791E-03  2100   0.162E-01    0.484E-01
RMM:   6    -0.496185267674E+03    0.46584E-03   -0.10401E-03  2100   0.638E-02    0.302E-01
RMM:   7    -0.496185277166E+03   -0.94916E-05   -0.44322E-04  2099   0.411E-02    0.344E-01
RMM:   8    -0.496184929303E+03    0.34786E-03   -0.29381E-04  2100   0.346E-02    0.148E-01
RMM:   9    -0.496184967346E+03   -0.38043E-04   -0.27148E-04  2100   0.326E-02    0.201E-01
RMM:  10    -0.496184991143E+03   -0.23797E-04   -0.39819E-04  2104   0.369E-02    0.229E-01
RMM:  11    -0.496184841363E+03    0.14978E-03   -0.25519E-04  2117   0.307E-02    0.131E-01
RMM:  12    -0.496184806974E+03    0.34389E-04   -0.89387E-05  2098   0.185E-02    0.818E-02
RMM:  13    -0.496184794433E+03    0.12541E-04   -0.27972E-05  2096   0.103E-02    0.515E-02
RMM:  14    -0.496184791233E+03    0.32004E-05   -0.11224E-05  1927   0.686E-03    0.353E-02
RMM:  15    -0.496184791712E+03   -0.47885E-06   -0.51259E-06  1749   0.488E-03
  33 F= -.53266411E+03 E0= -.53266866E+03  d E =-.216961E-02  mag=    89.1442
       N       E                     dE             d eps       ncg     rms          rms(c)
DAV:   1    -0.496103614472E+03    0.81177E-01   -0.20093E+01  2096   0.537E+00    0.217E+00
RMM:   2    -0.496191951090E+03   -0.88337E-01   -0.30657E-01  2100   0.129E+00    0.260E+00
RMM:   3    -0.496434291017E+03   -0.24234E+00   -0.17167E-01  2173   0.803E-01    0.868E+00
RMM:   4    -0.496230947505E+03    0.20334E+00   -0.76456E-02  2100   0.556E-01    0.373E+00
RMM:   5    -0.496190557476E+03    0.40390E-01   -0.33357E-02  2100   0.379E-01    0.123E+00
RMM:   6    -0.496187994996E+03    0.25625E-02   -0.64391E-03  2100   0.160E-01    0.833E-01
RMM:   7    -0.496187842239E+03    0.15276E-03   -0.28477E-03  2100   0.105E-01    0.840E-01
RMM:   8    -0.496185883681E+03    0.19586E-02   -0.16712E-03  2100   0.841E-02    0.342E-01
RMM:   9    -0.496186022962E+03   -0.13928E-03   -0.12493E-03  2100   0.701E-02    0.451E-01
RMM:  10    -0.496186022103E+03    0.85918E-06   -0.15584E-03  2102   0.741E-02    0.476E-01
RMM:  11    -0.496185600427E+03    0.42168E-03   -0.12964E-03  2102   0.694E-02    0.402E-01
RMM:  12    -0.496185231825E+03    0.36860E-03   -0.67665E-04  2100   0.513E-02    0.222E-01
RMM:  13    -0.496185127883E+03    0.10394E-03   -0.25122E-04  2100   0.311E-02    0.140E-01
RMM:  14    -0.496185112621E+03    0.15262E-04   -0.10887E-04  2098   0.212E-02    0.104E-01
RMM:  15    -0.496185103562E+03    0.90587E-05   -0.45326E-05  2097   0.141E-02    0.586E-02
RMM:  16    -0.496185103037E+03    0.52566E-06   -0.19817E-05  2089   0.915E-03    0.420E-02
RMM:  17    -0.496185108688E+03   -0.56509E-05   -0.11726E-05  2062   0.695E-03    0.327E-02
RMM:  18    -0.496185118916E+03   -0.10228E-04   -0.80712E-06  1918   0.583E-03    0.296E-02
RMM:  19    -0.496185131009E+03   -0.12093E-04   -0.59390E-06  1853   0.500E-03    0.233E-02
RMM:  20    -0.496185139353E+03   -0.83436E-05   -0.35361E-06  1609   0.408E-03    0.176E-02
RMM:  21    -0.496185147762E+03   -0.84097E-05   -0.19115E-06  1254   0.320E-03    0.133E-02
RMM:  22    -0.496185153129E+03   -0.53664E-05   -0.12245E-06  1170   0.262E-03    0.115E-02
RMM:  23    -0.496185161711E+03   -0.85829E-05   -0.76297E-07  1179   0.201E-03    0.886E-03
RMM:  24    -0.496185167475E+03   -0.57637E-05   -0.49927E-07  1166   0.168E-03    0.733E-03
RMM:  25    -0.496185173748E+03   -0.62732E-05   -0.24032E-07  1166   0.118E-03    0.512E-03
RMM:  26    -0.496185177206E+03   -0.34573E-05   -0.12696E-07  1143   0.847E-04    0.436E-03
RMM:  27    -0.496185183519E+03   -0.63128E-05   -0.91796E-08  1125   0.661E-04    0.388E-03
RMM:  28    -0.496185188072E+03   -0.45530E-05   -0.78166E-08  1118   0.646E-04    0.321E-03
RMM:  29    -0.496185196799E+03   -0.87273E-05   -0.10442E-07  1158   0.617E-04    0.386E-03
RMM:  30    -0.496185202542E+03   -0.57436E-05   -0.95640E-08  1139   0.678E-04    0.282E-03
RMM:  31    -0.496185211778E+03   -0.92352E-05   -0.11398E-07  1143   0.596E-04    0.366E-03
RMM:  32    -0.496185216795E+03   -0.50176E-05   -0.89356E-08  1128   0.633E-04    0.234E-03
RMM:  33    -0.496185221328E+03   -0.45325E-05   -0.74545E-08  1068   0.505E-04    0.279E-03
RMM:  34    -0.496185225159E+03   -0.38313E-05   -0.78209E-08  1087   0.511E-04    0.159E-03
RMM:  35    -0.496185226365E+03   -0.12061E-05   -0.45162E-08   937   0.396E-04    0.175E-03
RMM:  36    -0.496185226967E+03   -0.60183E-06   -0.42883E-08   865   0.348E-04
  34 F= -.53266535E+03 E0= -.53267003E+03  d E =-.340487E-02  mag=    89.1678
       N       E                     dE             d eps       ncg     rms          rms(c)
DAV:   1    -0.496150433163E+03    0.34793E-01   -0.84747E+00  2096   0.353E+00    0.143E+00
RMM:   2    -0.496185942564E+03   -0.35509E-01   -0.11772E-01  2100   0.786E-01    0.155E+00
RMM:   3    -0.496259456981E+03   -0.73514E-01   -0.72450E-02  2159   0.529E-01    0.481E+00
RMM:   4    -0.496206536742E+03    0.52920E-01   -0.30522E-02  2100   0.358E-01    0.250E+00
RMM:   5    -0.496186636453E+03    0.19900E-01   -0.10758E-02  2100   0.213E-01    0.651E-01
RMM:   6    -0.496185975807E+03    0.66065E-03   -0.20646E-03  2100   0.896E-02    0.483E-01
RMM:   7    -0.496185879409E+03    0.96399E-04   -0.92241E-04  2100   0.596E-02    0.471E-01
RMM:   8    -0.496185198575E+03    0.68083E-03   -0.57071E-04  2100   0.487E-02    0.195E-01
RMM:   9    -0.496185317950E+03   -0.11938E-03   -0.51576E-04  2100   0.446E-02    0.306E-01
RMM:  10    -0.496185226973E+03    0.90977E-04   -0.70533E-04  2099   0.494E-02    0.271E-01
RMM:  11    -0.496185072189E+03    0.15478E-03   -0.46073E-04  2102   0.412E-02    0.184E-01
RMM:  12    -0.496184979863E+03    0.92326E-04   -0.18185E-04  2098   0.265E-02    0.102E-01
RMM:  13    -0.496184958233E+03    0.21629E-04   -0.50714E-05  2099   0.142E-02    0.523E-02
RMM:  14    -0.496184957037E+03    0.11963E-05   -0.17162E-05  2096   0.845E-03    0.378E-02
RMM:  15    -0.496184954587E+03    0.24504E-05   -0.73924E-06  1843   0.567E-03    0.259E-02
RMM:  16    -0.496184954898E+03   -0.31183E-06   -0.41002E-06  1684   0.431E-03
  35 F= -.53266800E+03 E0= -.53267264E+03  d E =-.265154E-02  mag=    89.1707
       N       E                     dE             d eps       ncg     rms          rms(c)
DAV:   1    -0.496170801226E+03    0.14153E-01   -0.31590E+00  2096   0.215E+00    0.872E-01
RMM:   2    -0.496183646434E+03   -0.12845E-01   -0.42805E-02  2100   0.470E-01    0.895E-01
RMM:   3    -0.496205485008E+03   -0.21839E-01   -0.26608E-02  2164   0.322E-01    0.271E+00
RMM:   4    -0.496189678781E+03    0.15806E-01   -0.11685E-02  2100   0.223E-01    0.137E+00
RMM:   5    -0.496184247543E+03    0.54312E-02   -0.29197E-03  2100   0.109E-01    0.365E-01
RMM:   6    -0.496183994667E+03    0.25288E-03   -0.62363E-04  2105   0.491E-02    0.256E-01
RMM:   7    -0.496183939019E+03    0.55648E-04   -0.28604E-04  2099   0.333E-02    0.260E-01
RMM:   8    -0.496183729460E+03    0.20956E-03   -0.18808E-04  2100   0.277E-02    0.126E-01
RMM:   9    -0.496183783501E+03   -0.54041E-04   -0.17078E-04  2099   0.256E-02    0.204E-01
RMM:  10    -0.496183791499E+03   -0.79977E-05   -0.26271E-04  2102   0.302E-02    0.217E-01
RMM:  11    -0.496183693400E+03    0.98098E-04   -0.18987E-04  2100   0.264E-02    0.119E-01
RMM:  12    -0.496183658320E+03    0.35081E-04   -0.71044E-05  2097   0.166E-02    0.761E-02
RMM:  13    -0.496183643981E+03    0.14339E-04   -0.23416E-05  2091   0.945E-03    0.334E-02
RMM:  14    -0.496183644467E+03   -0.48652E-06   -0.64726E-06  1802   0.521E-03
  36 F= -.53266852E+03 E0= -.53267314E+03  d E =-.317155E-02  mag=    89.1744
       N       E                     dE             d eps       ncg     rms          rms(c)
DAV:   1    -0.496175307067E+03    0.83369E-02   -0.21870E+00  2100   0.181E+00    0.670E-01
RMM:   2    -0.496183599640E+03   -0.82926E-02   -0.29826E-02  2100   0.398E-01    0.786E-01
RMM:   3    -0.496200657916E+03   -0.17058E-01   -0.18398E-02  2173   0.267E-01    0.249E+00
RMM:   4    -0.496187957603E+03    0.12700E-01   -0.79646E-03  2101   0.180E-01    0.118E+00
RMM:   5    -0.496183774351E+03    0.41833E-02   -0.25184E-03  2101   0.103E-01    0.378E-01
RMM:   6    -0.496183474303E+03    0.30005E-03   -0.47528E-04  2106   0.422E-02    0.210E-01
RMM:   7    -0.496183447057E+03    0.27246E-04   -0.21671E-04  2098   0.299E-02    0.196E-01
RMM:   8    -0.496183313517E+03    0.13354E-03   -0.14533E-04  2100   0.244E-02    0.118E-01
RMM:   9    -0.496183355746E+03   -0.42229E-04   -0.13185E-04  2097   0.228E-02    0.175E-01
RMM:  10    -0.496183402191E+03   -0.46445E-04   -0.21369E-04  2099   0.271E-02    0.211E-01
RMM:  11    -0.496183268017E+03    0.13417E-03   -0.13981E-04  2104   0.231E-02    0.736E-02
RMM:  12    -0.496183260197E+03    0.78198E-05   -0.35754E-05  2098   0.118E-02    0.503E-02
RMM:  13    -0.496183257472E+03    0.27257E-05   -0.12351E-05  2019   0.700E-03    0.305E-02
RMM:  14    -0.496183255154E+03    0.23175E-05   -0.41848E-06  1695   0.441E-03    0.171E-02
RMM:  15    -0.496183255319E+03   -0.16473E-06   -0.20685E-06  1320   0.315E-03
  37 F= -.53267023E+03 E0= -.53267462E+03  d E =-.171282E-02  mag=    89.1728
       N       E                     dE             d eps       ncg     rms          rms(c)
DAV:   1    -0.496182465613E+03    0.78954E-03   -0.10302E-01  2144   0.393E-01    0.146E-01
RMM:   2    -0.496182854713E+03   -0.38910E-03   -0.14062E-03  2101   0.858E-02    0.173E-01
RMM:   3    -0.496183651824E+03   -0.79711E-03   -0.88917E-04  2165   0.586E-02    0.537E-01
RMM:   4    -0.496183041499E+03    0.61032E-03   -0.38753E-04  2100   0.397E-02    0.242E-01
RMM:   5    -0.496182866045E+03    0.17545E-03   -0.10396E-04  2099   0.208E-02    0.807E-02
RMM:   6    -0.496182854492E+03    0.11553E-04   -0.21973E-05  2073   0.914E-03    0.449E-02
RMM:   7    -0.496182854683E+03   -0.19068E-06   -0.10337E-05  1929   0.653E-03    0.475E-02
RMM:   8    -0.496182848711E+03    0.59711E-05   -0.70823E-06  1879   0.565E-03    0.275E-02
RMM:   9    -0.496182850293E+03   -0.15815E-05   -0.59453E-06  1768   0.499E-03    0.349E-02
RMM:  10    -0.496182854288E+03   -0.39954E-05   -0.10236E-05  2086   0.597E-03    0.431E-02
RMM:  11    -0.496182850690E+03    0.35989E-05   -0.60692E-06  1804   0.495E-03    0.216E-02
RMM:  12    -0.496182850338E+03    0.35140E-06   -0.21027E-06  1308   0.330E-03
  38 F= -.53267029E+03 E0= -.53267464E+03  d E =-.177069E-02  mag=    89.1715
       N       E                     dE             d eps       ncg     rms          rms(c)
DAV:   1    -0.496174248660E+03    0.86020E-02   -0.22888E+00  2096   0.185E+00    0.647E-01
RMM:   2    -0.496182203784E+03   -0.79551E-02   -0.31334E-02  2100   0.411E-01    0.741E-01
RMM:   3    -0.496197356316E+03   -0.15153E-01   -0.17575E-02  2197   0.261E-01    0.235E+00
RMM:   4    -0.496186259171E+03    0.11097E-01   -0.74314E-03  2102   0.173E-01    0.111E+00
RMM:   5    -0.496182515979E+03    0.37432E-02   -0.22489E-03  2100   0.968E-02    0.365E-01
RMM:   6    -0.496182209821E+03    0.30616E-03   -0.44068E-04  2105   0.405E-02    0.200E-01
RMM:   7    -0.496182179669E+03    0.30151E-04   -0.19667E-04  2100   0.283E-02    0.196E-01
RMM:   8    -0.496182037093E+03    0.14258E-03   -0.13632E-04  2098   0.235E-02    0.109E-01
RMM:   9    -0.496182083574E+03   -0.46481E-04   -0.13601E-04  2102   0.229E-02    0.181E-01
RMM:  10    -0.496182100094E+03   -0.16520E-04   -0.22239E-04  2100   0.274E-02    0.206E-01
RMM:  11    -0.496181984392E+03    0.11570E-03   -0.14399E-04  2103   0.233E-02    0.819E-02
RMM:  12    -0.496181974746E+03    0.96465E-05   -0.45313E-05  2099   0.132E-02    0.584E-02
RMM:  13    -0.496181968618E+03    0.61275E-05   -0.15422E-05  2071   0.778E-03    0.286E-02
RMM:  14    -0.496181967883E+03    0.73537E-06   -0.42877E-06  1703   0.433E-03
  39 F= -.53267160E+03 E0= -.53267571E+03  d E =-.130946E-02  mag=    89.1670
