ML                                      
           1
     9.034815   -5.187850   -0.008287
    -0.057796   10.281577   -0.034218
    -0.009409   -0.058307   22.931524
   Pt   Pd   Ni   Co   Fe
  17  17  16  16  14
Direct configuration=     1
   0.52658359  0.95977753  0.28294702
   0.26989456  0.95772989  0.28077136
   0.42849268  0.78983535  0.18359979
   0.93015324  0.27766031  0.18610253
   0.68729787  0.53981273  0.46732008
   0.59209209  0.11701560  0.09770078
   0.18721509  0.78196167  0.47523504
   0.42478909  0.26067440  0.47013285
   0.01101551  0.45134100  0.28174077
   0.42753026  0.52908020  0.18325408
   0.52573128  0.70956269  0.28211657
   0.58807634  0.11026657  0.37380363
   0.85800508  0.63336562  0.09355988
   0.76574047  0.95067718  0.28073367
   0.10977614  0.62273848  0.09034509
   0.94186189  0.02949651  0.18390547
   0.09434018  0.10254009  0.37574656
   0.33584918  0.35327174  0.08999996
   0.75811024  0.19443831  0.28209637
   0.42295517  0.76997791  0.47159943
   0.85139679  0.36745366  0.09367195
   0.34697892  0.10815623  0.37498652
   0.43031628  0.27076644  0.18572203
   0.77839757  0.70263067  0.28176840
   0.10561478  0.63780147  0.37911739
   0.93341726  0.54013924  0.18963137
   0.26283245  0.19253999  0.27944368
   0.93254152  0.01698666  0.47227295
   0.60484821  0.87025651  0.08982326
   0.68962734  0.78332360  0.18543408
   0.66912763  0.01532569  0.46858339
   0.26664771  0.70503665  0.27963708
   0.59931409  0.61498999  0.08920311
   0.84203182  0.37151637  0.37621006
   0.18294496  0.02799095  0.18512402
   0.10761290  0.87739914  0.09201924
   0.94553310  0.78903588  0.18765688
   0.94576698  0.53466639  0.47245721
   0.59842805  0.36425580  0.09394701
   0.34236599  0.87136037  0.09208857
   0.86154325  0.87837377  0.08835019
   0.76336910  0.44360756  0.28062484
   0.94331947  0.77655001  0.46958253
   0.43147766  0.03118405  0.18911434
   0.68391986  0.52526510  0.18636612
   0.84806368  0.85889705  0.37528749
   0.67947335  0.27580264  0.19343391
   0.09938859  0.11151900  0.09087981
   0.01319851  0.18731564  0.28111948
   0.93424861  0.28134720  0.47280295
   0.01968479  0.71170569  0.28111779
   0.34982534  0.61947033  0.08678367
   0.10077248  0.36363963  0.09213387
   0.17823948  0.01793489  0.47142446
   0.35016323  0.35478848  0.37658496
   0.18265007  0.79019181  0.18454442
   0.60418410  0.86249664  0.37401245
   0.17989102  0.27937932  0.18434885
   0.67918743  0.27560309  0.46970424
   0.26536210  0.44403722  0.27856492
   0.09721299  0.36574308  0.37865678
   0.85386509  0.62512471  0.37653417
   0.52320036  0.44254746  0.28177836
   0.59842873  0.35867580  0.37283297
   0.18203862  0.52764038  0.18205683
   0.10300738  0.87793103  0.37833084
   0.41581869  0.00807798  0.46474431
   0.52706933  0.19837551  0.28450644
   0.34263608  0.10883634  0.09242974
   0.86166440  0.11767541  0.09069917
   0.36619318  0.87846670  0.37577931
   0.43641161  0.54235030  0.47075388
   0.18090548  0.53326282  0.47182048
   0.18374025  0.28492550  0.47585553
   0.84060456  0.10445318  0.37436746
   0.35762014  0.62438614  0.37862506
   0.67986461  0.03475125  0.19253775
   0.67688309  0.77640948  0.47104239
   0.02188428  0.94837004  0.28305955
   0.60127152  0.61598568  0.37572348
Direct configuration=     2
   0.50682870  0.94427184  0.27955629
   0.26293285  0.94523629  0.27851560
   0.42849268  0.78983535  0.18359979
   0.93015324  0.27766031  0.18610253
   0.68751469  0.53585041  0.46743226
   0.59209209  0.11701560  0.09770078
   0.17879547  0.78128201  0.47673009
   0.42845569  0.27056675  0.47163559
   0.02010303  0.45226856  0.28322719
   0.42753026  0.52908020  0.18325408
   0.51031295  0.68483657  0.28357056
   0.60405217  0.12044699  0.38050463
   0.85800508  0.63336562  0.09355988
   0.78324522  0.95574921  0.28223895
   0.10977614  0.62273848  0.09034509
   0.94186189  0.02949651  0.18390547
   0.09249107  0.11554929  0.37669108
   0.33584918  0.35327174  0.08999996
   0.77622524  0.21137629  0.28206285
   0.42783342  0.77025094  0.47262772
   0.85139679  0.36745366  0.09367195
   0.34484124  0.11362237  0.37648452
   0.43031628  0.27076644  0.18572203
   0.77550496  0.69422698  0.28217458
   0.10484652  0.62950751  0.37674510
   0.93341726  0.54013924  0.18963137
   0.26509322  0.20708697  0.27891700
   0.93220354  0.01996613  0.47282547
   0.60484821  0.87025651  0.08982326
   0.68962734  0.78332360  0.18543408
   0.67646165  0.02360757  0.47020383
   0.26368766  0.69837220  0.28054057
   0.59931409  0.61498999  0.08920311
   0.84804596  0.37290646  0.37867890
   0.18294496  0.02799095  0.18512402
   0.10761290  0.87739914  0.09201924
   0.94553310  0.78903588  0.18765688
   0.94045762  0.53093791  0.47209131
   0.59842805  0.36425580  0.09394701
   0.34236599  0.87136037  0.09208857
   0.86154325  0.87837377  0.08835019
   0.76098311  0.44771386  0.28075140
   0.94116807  0.77509411  0.46856683
   0.43147766  0.03118405  0.18911434
   0.68391986  0.52526510  0.18636612
   0.84719496  0.85790117  0.37647532
   0.67947335  0.27580264  0.19343391
   0.09938859  0.11151900  0.09087981
   0.01741884  0.19381722  0.28141047
   0.93538000  0.28247842  0.47118752
   0.01884023  0.71064845  0.28142178
   0.34982534  0.61947033  0.08678367
   0.10077248  0.36363963  0.09213387
   0.17856446  0.01937373  0.47085537
   0.35240658  0.36374418  0.37623787
   0.18265007  0.79019181  0.18454442
   0.60354411  0.86026026  0.37521893
   0.17989102  0.27937932  0.18434885
   0.68023414  0.27706396  0.46913046
   0.26488937  0.44394270  0.27924678
   0.10118966  0.36698167  0.37855027
   0.85254207  0.62586484  0.37636601
   0.52229663  0.44310167  0.28301425
   0.59649926  0.36614533  0.37245062
   0.18203862  0.52764038  0.18205683
   0.09619214  0.86669901  0.37801523
   0.42218844  0.01803233  0.46717450
   0.52356354  0.20840228  0.28163550
   0.34263608  0.10883634  0.09242974
   0.86166440  0.11767541  0.09069917
   0.35573479  0.86460954  0.37590618
   0.43422813  0.53246345  0.46969194
   0.17526581  0.52489613  0.47099836
   0.18395502  0.28586674  0.47394565
   0.84606935  0.10728937  0.37625929
   0.35545378  0.61716849  0.37692679
   0.67986461  0.03475125  0.19253775
   0.67838633  0.77671372  0.46974949
   0.01982733  0.94543470  0.28210866
   0.59937017  0.61282066  0.37510359
Direct configuration=     3
   0.50814904  0.94530818  0.27978291
   0.26339815  0.94607131  0.27866636
   0.42849268  0.78983535  0.18359979
   0.93015324  0.27766031  0.18610253
   0.68750020  0.53611523  0.46742476
   0.59209209  0.11701560  0.09770078
   0.17935821  0.78132743  0.47663017
   0.42821063  0.26990558  0.47153515
   0.01949565  0.45220657  0.28312785
   0.42753026  0.52908020  0.18325408
   0.51134345  0.68648917  0.28347338
   0.60298441  0.11976658  0.38005676
   0.85800508  0.63336562  0.09355988
   0.78207527  0.95541021  0.28213834
   0.10977614  0.62273848  0.09034509
   0.94186189  0.02949651  0.18390547
   0.09261465  0.11467981  0.37662795
   0.33584918  0.35327174  0.08999996
   0.77501450  0.21024423  0.28206509
   0.42750738  0.77023269  0.47255899
   0.85139679  0.36745366  0.09367195
   0.34498412  0.11325704  0.37638440
   0.43031628  0.27076644  0.18572203
   0.77569829  0.69478865  0.28214744
   0.10489786  0.63006185  0.37690365
   0.93341726  0.54013924  0.18963137
   0.26494212  0.20611471  0.27895220
   0.93222613  0.01976700  0.47278854
   0.60484821  0.87025651  0.08982326
   0.68962734  0.78332360  0.18543408
   0.67597147  0.02305404  0.47009552
   0.26388550  0.69881763  0.28048018
   0.59931409  0.61498999  0.08920311
   0.84764400  0.37281355  0.37851389
   0.18294496  0.02799095  0.18512402
   0.10761290  0.87739914  0.09201924
   0.94553310  0.78903588  0.18765688
   0.94081248  0.53118711  0.47211576
   0.59842805  0.36425580  0.09394701
   0.34236599  0.87136037  0.09208857
   0.86154325  0.87837377  0.08835019
   0.76114258  0.44743941  0.28074294
   0.94131186  0.77519141  0.46863472
   0.43147766  0.03118405  0.18911434
   0.68391986  0.52526510  0.18636612
   0.84725302  0.85796773  0.37639593
   0.67947335  0.27580264  0.19343391
   0.09938859  0.11151900  0.09087981
   0.01713677  0.19338268  0.28139102
   0.93530438  0.28240281  0.47129549
   0.01889668  0.71071912  0.28140146
   0.34982534  0.61947033  0.08678367
   0.10077248  0.36363963  0.09213387
   0.17854274  0.01927757  0.47089341
   0.35225665  0.36314562  0.37626107
   0.18265007  0.79019181  0.18454442
   0.60358689  0.86040973  0.37513829
   0.17989102  0.27937932  0.18434885
   0.68016418  0.27696632  0.46916881
   0.26492096  0.44394902  0.27920120
   0.10092387  0.36689889  0.37855739
   0.85263050  0.62581537  0.37637725
   0.52235703  0.44306463  0.28293165
   0.59662822  0.36564609  0.37247618
   0.18203862  0.52764038  0.18205683
   0.09664764  0.86744971  0.37803633
   0.42176271  0.01736702  0.46701208
   0.52379785  0.20773213  0.28182739
   0.34263608  0.10883634  0.09242974
   0.86166440  0.11767541  0.09069917
   0.35643379  0.86553570  0.37589770
   0.43437406  0.53312425  0.46976292
   0.17564274  0.52545533  0.47105331
   0.18394066  0.28580383  0.47407330
   0.84570411  0.10709981  0.37613285
   0.35559857  0.61765089  0.37704030
   0.67986461  0.03475125  0.19253775
   0.67828586  0.77669339  0.46983590
   0.01996481  0.94563089  0.28217222
   0.59949725  0.61303220  0.37514503
Direct configuration=     4
   0.51793043  0.95225311  0.28186607
   0.25689487  0.94764606  0.27861643
   0.42849268  0.78983535  0.18359979
   0.93015324  0.27766031  0.18610253
   0.68798629  0.53366776  0.46764835
   0.59209209  0.11701560  0.09770078
   0.17724466  0.78064391  0.47669663
   0.43053003  0.27764028  0.47265442
   0.02617232  0.45357809  0.28338388
   0.42753026  0.52908020  0.18325408
   0.50970569  0.67983275  0.28457939
   0.60269591  0.11736141  0.37912146
   0.85800508  0.63336562  0.09355988
   0.77897996  0.95182395  0.28383846
   0.10977614  0.62273848  0.09034509
   0.94186189  0.02949651  0.18390547
   0.09308029  0.11986440  0.37684852
   0.33584918  0.35327174  0.08999996
   0.77084935  0.20608842  0.28334131
   0.42902466  0.76951726  0.47308452
   0.85139679  0.36745366  0.09367195
   0.34474644  0.11341009  0.37627100
   0.43031628  0.27076644  0.18572203
   0.77238195  0.68996524  0.28230946
   0.10402807  0.62374123  0.37667657
   0.93341726  0.54013924  0.18963137
   0.26528589  0.20799363  0.27920818
   0.93247936  0.02199597  0.47368045
   0.60484821  0.87025651  0.08982326
   0.68962734  0.78332360  0.18543408
   0.68212402  0.02773895  0.47261437
   0.26020444  0.69047437  0.28052950
   0.59931409  0.61498999  0.08920311
   0.85342092  0.37620986  0.38021117
   0.18294496  0.02799095  0.18512402
   0.10761290  0.87739914  0.09201924
   0.94553310  0.78903588  0.18765688
   0.93620343  0.52821989  0.47190871
   0.59842805  0.36425580  0.09394701
   0.34236599  0.87136037  0.09208857
   0.86154325  0.87837377  0.08835019
   0.76073867  0.45027346  0.28116726
   0.93795397  0.77451903  0.46761603
   0.43147766  0.03118405  0.18911434
   0.68391986  0.52526510  0.18636612
   0.84682429  0.85741960  0.37761429
   0.67947335  0.27580264  0.19343391
   0.09938859  0.11151900  0.09087981
   0.02281046  0.20081362  0.28130465
   0.93638996  0.28321871  0.47000644
   0.01648094  0.70754298  0.28169748
   0.34982534  0.61947033  0.08678367
   0.10077248  0.36363963  0.09213387
   0.17919176  0.02193314  0.46989718
   0.35488848  0.37252354  0.37604253
   0.18265007  0.79019181  0.18454442
   0.60278453  0.85858656  0.37551367
   0.17989102  0.27937932  0.18434885
   0.68169251  0.28015689  0.46971608
   0.26300757  0.44386086  0.27976280
   0.10569063  0.36978176  0.37843830
   0.85207165  0.62575900  0.37632135
   0.52180390  0.44286784  0.28396500
   0.59531959  0.37042165  0.37184980
   0.18203862  0.52764038  0.18205683
   0.09171138  0.86338534  0.37755441
   0.42442212  0.02279644  0.46885511
   0.52274353  0.21057007  0.28097342
   0.34263608  0.10883634  0.09242974
   0.86166440  0.11767541  0.09069917
   0.35415577  0.86294581  0.37715854
   0.43178393  0.52505814  0.46880638
   0.17160125  0.51981925  0.47007317
   0.18392726  0.28700072  0.47241639
   0.84868342  0.10938496  0.37749397
   0.35333078  0.61038391  0.37603146
   0.67986461  0.03475125  0.19253775
   0.67978560  0.77693975  0.46831290
   0.02138990  0.94536660  0.28201605
   0.59873970  0.61083188  0.37497104
Direct configuration=     5
   0.51837870  0.95257139  0.28196154
   0.25659683  0.94771823  0.27861414
   0.42849268  0.78983535  0.18359979
   0.93015324  0.27766031  0.18610253
   0.68800857  0.53355559  0.46765859
   0.59209209  0.11701560  0.09770078
   0.17714780  0.78061258  0.47669968
   0.43063633  0.27799476  0.47270571
   0.02647830  0.45364094  0.28339562
   0.42753026  0.52908020  0.18325408
   0.50963063  0.67952769  0.28463008
   0.60268268  0.11725118  0.37907859
   0.85800508  0.63336562  0.09355988
   0.77883810  0.95165959  0.28391637
   0.10977614  0.62273848  0.09034509
   0.94186189  0.02949651  0.18390547
   0.09310163  0.12010200  0.37685863
   0.33584918  0.35327174  0.08999996
   0.77065846  0.20589796  0.28339980
   0.42909419  0.76948447  0.47310860
   0.85139679  0.36745366  0.09367195
   0.34473554  0.11341711  0.37626580
   0.43031628  0.27076644  0.18572203
   0.77222996  0.68974418  0.28231688
   0.10398821  0.62345156  0.37666616
   0.93341726  0.54013924  0.18963137
   0.26530164  0.20807974  0.27921991
   0.93249097  0.02209813  0.47372132
   0.60484821  0.87025651  0.08982326
   0.68962734  0.78332360  0.18543408
   0.68240599  0.02795366  0.47272981
   0.26003574  0.69009201  0.28053176
   0.59931409  0.61498999  0.08920311
   0.85368568  0.37636551  0.38028895
   0.18294496  0.02799095  0.18512402
   0.10761290  0.87739914  0.09201924
   0.94553310  0.78903588  0.18765688
   0.93599220  0.52808391  0.47189922
   0.59842805  0.36425580  0.09394701
   0.34236599  0.87136037  0.09208857
   0.86154325  0.87837377  0.08835019
   0.76072016  0.45040335  0.28118671
   0.93780008  0.77448822  0.46756934
   0.43147766  0.03118405  0.18911434
   0.68391986  0.52526510  0.18636612
   0.84680464  0.85739448  0.37767012
   0.67947335  0.27580264  0.19343391
   0.09938859  0.11151900  0.09087981
   0.02307048  0.20115418  0.28130069
   0.93643971  0.28325610  0.46994736
   0.01637023  0.70739742  0.28171104
   0.34982534  0.61947033  0.08678367
   0.10077248  0.36363963  0.09213387
   0.17922150  0.02205484  0.46985153
   0.35500910  0.37295333  0.37603251
   0.18265007  0.79019181  0.18454442
   0.60274776  0.85850301  0.37553087
   0.17989102  0.27937932  0.18434885
   0.68176255  0.28030311  0.46974116
   0.26291988  0.44385682  0.27978854
   0.10590909  0.36991388  0.37843284
   0.85204604  0.62575641  0.37631879
   0.52177855  0.44285882  0.28401236
   0.59525962  0.37064051  0.37182109
   0.18203862  0.52764038  0.18205683
   0.09148516  0.86319907  0.37753233
   0.42454400  0.02304527  0.46893958
   0.52269521  0.21070013  0.28093428
   0.34263608  0.10883634  0.09242974
   0.86166440  0.11767541  0.09069917
   0.35405137  0.86282711  0.37721633
   0.43166522  0.52468848  0.46876255
   0.17141603  0.51956095  0.47002825
   0.18392665  0.28705557  0.47234045
   0.84881996  0.10948968  0.37755635
   0.35322685  0.61005087  0.37598522
   0.67986461  0.03475125  0.19253775
   0.67985433  0.77695104  0.46824310
   0.02145521  0.94535449  0.28200889
   0.59870499  0.61073104  0.37496307
Direct configuration=     6
   0.51899838  0.95285162  0.28349901
   0.25780911  0.94806710  0.27905664
   0.42849268  0.78983535  0.18359979
   0.93015324  0.27766031  0.18610253
   0.68908012  0.53326300  0.46789247
   0.59209209  0.11701560  0.09770078
   0.17738882  0.78024496  0.47599222
   0.43080246  0.28056768  0.47296019
   0.02065626  0.44608223  0.28271314
   0.42753026  0.52908020  0.18325408
   0.51192120  0.68205273  0.28498866
   0.59985344  0.11513565  0.37872370
   0.85800508  0.63336562  0.09355988
   0.77610201  0.94884240  0.28501570
   0.10977614  0.62273848  0.09034509
   0.94186189  0.02949651  0.18390547
   0.09453567  0.12094576  0.37688084
   0.33584918  0.35327174  0.08999996
   0.76953857  0.20521778  0.28432901
   0.42931922  0.76797516  0.47310802
   0.85139679  0.36745366  0.09367195
   0.34548688  0.11355568  0.37649394
   0.43031628  0.27076644  0.18572203
   0.77061254  0.68934161  0.28228613
   0.10511989  0.62234690  0.37776862
   0.93341726  0.54013924  0.18963137
   0.26524609  0.20749682  0.27969388
   0.93394670  0.02409329  0.47469506
   0.60484821  0.87025651  0.08982326
   0.68962734  0.78332360  0.18543408
   0.68529325  0.03059321  0.47462375
   0.26749942  0.69765947  0.28013631
   0.59931409  0.61498999  0.08920311
   0.85413549  0.37523727  0.38065408
   0.18294496  0.02799095  0.18512402
   0.10761290  0.87739914  0.09201924
   0.94553310  0.78903588  0.18765688
   0.93291253  0.52688652  0.47218792
   0.59842805  0.36425580  0.09394701
   0.34236599  0.87136037  0.09208857
   0.86154325  0.87837377  0.08835019
   0.76136128  0.44984921  0.28172297
   0.93509481  0.77471957  0.46667277
   0.43147766  0.03118405  0.18911434
   0.68391986  0.52526510  0.18636612
   0.84675014  0.85738288  0.37874305
   0.67947335  0.27580264  0.19343391
   0.09938859  0.11151900  0.09087981
   0.02475816  0.20403596  0.28098906
   0.93700496  0.28340810  0.46911412
   0.01377318  0.70378688  0.28212998
   0.34982534  0.61947033  0.08678367
   0.10077248  0.36363963  0.09213387
   0.18019381  0.02475819  0.46869424
   0.35708582  0.38022611  0.37593686
   0.18265007  0.79019181  0.18454442
   0.60140687  0.85670977  0.37628394
   0.17989102  0.27937932  0.18434885
   0.68285036  0.28243188  0.47007442
   0.26159744  0.44269555  0.28010263
   0.10987584  0.37295715  0.37814733
   0.85175915  0.62501365  0.37626972
   0.52107783  0.44147849  0.28466022
   0.59494537  0.37300438  0.37139785
   0.18203862  0.52764038  0.18205683
   0.08813666  0.86167278  0.37689685
   0.42581166  0.02622537  0.47026863
   0.52248385  0.21059533  0.28094915
   0.34263608  0.10883634  0.09242974
   0.86166440  0.11767541  0.09069917
   0.35405889  0.86333452  0.37865971
   0.42915842  0.52035940  0.46796305
   0.16915976  0.51669782  0.46916016
   0.18343825  0.28769957  0.47103862
   0.84992821  0.11112815  0.37863860
   0.35135881  0.60446738  0.37576542
   0.67986461  0.03475125  0.19253775
   0.68149764  0.77730779  0.46671816
   0.02023859  0.94566236  0.28217406
   0.59992895  0.60980702  0.37527943
Direct configuration=     7
   0.51901168  0.95285763  0.28353202
   0.25783514  0.94807459  0.27906614
   0.42849268  0.78983535  0.18359979
   0.93015324  0.27766031  0.18610253
   0.68910312  0.53325671  0.46789749
   0.59209209  0.11701560  0.09770078
   0.17739400  0.78023707  0.47597703
   0.43080603  0.28062292  0.47296565
   0.02053127  0.44591995  0.28269849
   0.42753026  0.52908020  0.18325408
   0.51197038  0.68210694  0.28499636
   0.59979269  0.11509023  0.37871608
   0.85800508  0.63336562  0.09355988
   0.77604326  0.94878192  0.28503930
   0.10977614  0.62273848  0.09034509
   0.94186189  0.02949651  0.18390547
   0.09456646  0.12096387  0.37688132
   0.33584918  0.35327174  0.08999996
   0.76951453  0.20520318  0.28434896
   0.42932405  0.76794276  0.47310801
   0.85139679  0.36745366  0.09367195
   0.34550301  0.11355865  0.37649884
   0.43031628  0.27076644  0.18572203
   0.77057781  0.68933297  0.28228547
   0.10514418  0.62232318  0.37779229
   0.93341726  0.54013924  0.18963137
   0.26524490  0.20748430  0.27970405
   0.93397795  0.02413612  0.47471596
   0.60484821  0.87025651  0.08982326
   0.68962734  0.78332360  0.18543408
   0.68535524  0.03064988  0.47466441
   0.26765967  0.69782194  0.28012782
   0.59931409  0.61498999  0.08920311
   0.85414514  0.37521305  0.38066192
   0.18294496  0.02799095  0.18512402
   0.10761290  0.87739914  0.09201924
   0.94553310  0.78903588  0.18765688
   0.93284641  0.52686081  0.47219412
   0.59842805  0.36425580  0.09394701
   0.34236599  0.87136037  0.09208857
   0.86154325  0.87837377  0.08835019
   0.76137504  0.44983731  0.28173449
   0.93503673  0.77472454  0.46665352
   0.43147766  0.03118405  0.18911434
   0.68391986  0.52526510  0.18636612
   0.84674897  0.85738264  0.37876608
   0.67947335  0.27580264  0.19343391
   0.09938859  0.11151900  0.09087981
   0.02479439  0.20409783  0.28098236
   0.93701709  0.28341136  0.46909623
   0.01371742  0.70370936  0.28213898
   0.34982534  0.61947033  0.08678367
   0.10077248  0.36363963  0.09213387
   0.18021469  0.02481623  0.46866939
   0.35713041  0.38038226  0.37593481
   0.18265007  0.79019181  0.18454442
   0.60137808  0.85667127  0.37630011
   0.17989102  0.27937932  0.18434885
   0.68287371  0.28247758  0.47008158
   0.26156905  0.44267062  0.28010938
   0.10996101  0.37302249  0.37814120
   0.85175299  0.62499770  0.37626867
   0.52106279  0.44144885  0.28467413
   0.59493863  0.37305513  0.37138877
   0.18203862  0.52764038  0.18205683
   0.08806477  0.86164001  0.37688320
   0.42583887  0.02629364  0.47029716
   0.52247931  0.21059308  0.28094947
   0.34263608  0.10883634  0.09242974
   0.86166440  0.11767541  0.09069917
   0.35405905  0.86334541  0.37869070
   0.42910460  0.52026645  0.46794588
   0.16911132  0.51663635  0.46914152
   0.18342777  0.28771339  0.47101067
   0.84995200  0.11116333  0.37866183
   0.35131870  0.60434750  0.37576071
   0.67986461  0.03475125  0.19253775
   0.68153292  0.77731545  0.46668542
   0.02021247  0.94566897  0.28217761
   0.59995523  0.60978718  0.37528622
Direct configuration=     8
   0.51699223  0.95143585  0.28346614
   0.25922499  0.94779990  0.27949183
   0.42849268  0.78983535  0.18359979
   0.93015324  0.27766031  0.18610253
   0.68962816  0.53388654  0.46809703
   0.59209209  0.11701560  0.09770078
   0.17793954  0.78090927  0.47533100
   0.43005471  0.27960217  0.47276614
   0.02199914  0.44906843  0.28268730
   0.42753026  0.52908020  0.18325408
   0.51350966  0.68463152  0.28498029
   0.59865335  0.11514281  0.38001285
   0.85800508  0.63336562  0.09355988
   0.77622064  0.94947774  0.28555602
   0.10977614  0.62273848  0.09034509
   0.94186189  0.02949651  0.18390547
   0.09518068  0.12003903  0.37680403
   0.33584918  0.35327174  0.08999996
   0.76842311  0.20378242  0.28454996
   0.42930531  0.76653973  0.47290781
   0.85139679  0.36745366  0.09367195
   0.34613539  0.11422163  0.37691290
   0.43031628  0.27076644  0.18572203
   0.77075077  0.68974087  0.28222804
   0.10655731  0.62283813  0.37780709
   0.93341726  0.54013924  0.18963137
   0.26528557  0.20662590  0.28008588
   0.93583784  0.02590968  0.47547436
   0.60484821  0.87025651  0.08982326
   0.68962734  0.78332360  0.18543408
   0.68533645  0.03155576  0.47562374
   0.26667498  0.69826638  0.28049960
   0.59931409  0.61498999  0.08920311
   0.85199176  0.37255913  0.38055030
   0.18294496  0.02799095  0.18512402
   0.10761290  0.87739914  0.09201924
   0.94553310  0.78903588  0.18765688
   0.93152720  0.52696540  0.47262227
   0.59842805  0.36425580  0.09394701
   0.34236599  0.87136037  0.09208857
   0.86154325  0.87837377  0.08835019
   0.76196449  0.44858714  0.28216459
   0.93434747  0.77561637  0.46605653
   0.43147766  0.03118405  0.18911434
   0.68391986  0.52526510  0.18636612
   0.84700868  0.85793214  0.37952940
   0.67947335  0.27580264  0.19343391
   0.09938859  0.11151900  0.09087981
   0.02357237  0.20211424  0.28071681
   0.93700839  0.28317089  0.46872916
   0.01275927  0.70178721  0.28256845
   0.34982534  0.61947033  0.08678367
   0.10077248  0.36363963  0.09213387
   0.18110299  0.02631286  0.46779127
   0.35788450  0.38317881  0.37574990
   0.18265007  0.79019181  0.18454442
   0.60013097  0.85550251  0.37741939
   0.17989102  0.27937932  0.18434885
   0.68314815  0.28298091  0.47016128
   0.26178162  0.44316675  0.28017913
   0.11185447  0.37437856  0.37757873
   0.85166013  0.62389858  0.37603315
   0.52048937  0.44070195  0.28488907
   0.59568108  0.37359786  0.37135359
   0.18203862  0.52764038  0.18205683
   0.08663778  0.86137988  0.37619562
   0.42648775  0.02779613  0.47120139
   0.52257550  0.20926549  0.28121393
   0.34263608  0.10883634  0.09242974
   0.86166440  0.11767541  0.09069917
   0.35431548  0.86426254  0.37998442
   0.42759525  0.51996811  0.46754401
   0.16838437  0.51616571  0.46870497
   0.18271653  0.28768350  0.47017338
   0.84976085  0.11156127  0.37936057
   0.35051841  0.60236962  0.37574074
   0.67986461  0.03475125  0.19253775
   0.68285101  0.77797679  0.46558323
   0.01881564  0.94545561  0.28234229
   0.60225297  0.61040428  0.37553459
Direct configuration=     9
   0.51602648  0.95075592  0.28343463
   0.25988965  0.94766854  0.27969540
   0.42849268  0.78983535  0.18359979
   0.93015324  0.27766031  0.18610253
   0.68987925  0.53418773  0.46819246
   0.59209209  0.11701560  0.09770078
   0.17820044  0.78123073  0.47502205
   0.42969542  0.27911403  0.47267073
   0.02270110  0.45057411  0.28268194
   0.42753026  0.52908020  0.18325408
   0.51424577  0.68583883  0.28497261
   0.59810849  0.11516796  0.38063300
   0.85800508  0.63336562  0.09355988
   0.77630546  0.94981049  0.28580312
   0.10977614  0.62273848  0.09034509
   0.94186189  0.02949651  0.18390547
   0.09547442  0.11959675  0.37676707
   0.33584918  0.35327174  0.08999996
   0.76790118  0.20310298  0.28464608
   0.42929634  0.76586877  0.47281207
   0.85139679  0.36745366  0.09367195
   0.34643781  0.11453868  0.37711092
   0.43031628  0.27076644  0.18572203
   0.77083349  0.68993594  0.28220058
   0.10723310  0.62308439  0.37781417
   0.93341726  0.54013924  0.18963137
   0.26530502  0.20621539  0.28026848
   0.93672728  0.02675783  0.47583704
   0.60484821  0.87025651  0.08982326
   0.68962734  0.78332360  0.18543408
   0.68532746  0.03198898  0.47608251
   0.26620408  0.69847892  0.28067739
   0.59931409  0.61498999  0.08920311
   0.85096196  0.37128997  0.38049693
   0.18294496  0.02799095  0.18512402
   0.10761290  0.87739914  0.09201924
   0.94553310  0.78903588  0.18765688
   0.93089632  0.52701542  0.47282703
   0.59842805  0.36425580  0.09394701
   0.34236599  0.87136037  0.09208857
   0.86154325  0.87837377  0.08835019
   0.76224638  0.44798928  0.28237028
   0.93401786  0.77604287  0.46577103
   0.43147766  0.03118405  0.18911434
   0.68391986  0.52526510  0.18636612
   0.84713287  0.85819492  0.37989443
   0.67947335  0.27580264  0.19343391
   0.09938859  0.11151900  0.09087981
   0.02298797  0.20116565  0.28058981
   0.93700423  0.28305588  0.46855362
   0.01230106  0.70086800  0.28277383
   0.34982534  0.61947033  0.08678367
   0.10077248  0.36363963  0.09213387
   0.18152780  0.02702857  0.46737133
   0.35824512  0.38451617  0.37566147
   0.18265007  0.79019181  0.18454442
   0.59953458  0.85494358  0.37795466
   0.17989102  0.27937932  0.18434885
   0.68327939  0.28322162  0.47019939
   0.26188328  0.44340401  0.28021248
   0.11275996  0.37502706  0.37730974
   0.85161572  0.62337295  0.37592053
   0.52021515  0.44034477  0.28499186
   0.59603614  0.37385740  0.37133676
   0.18203862  0.52764038  0.18205683
   0.08595536  0.86125548  0.37586680
   0.42679805  0.02851464  0.47163381
   0.52262150  0.20863061  0.28134041
   0.34263608  0.10883634  0.09242974
   0.86166440  0.11767541  0.09069917
   0.35443811  0.86470112  0.38060311
   0.42687344  0.51982544  0.46735182
   0.16803673  0.51594065  0.46849621
   0.18237641  0.28766920  0.46977297
   0.84966943  0.11175157  0.37969472
   0.35013570  0.60142376  0.37573119
   0.67986461  0.03475125  0.19253775
   0.68348135  0.77829306  0.46505614
   0.01814765  0.94535358  0.28242104
   0.60335179  0.61069939  0.37565337
Direct configuration=    10
   0.51668042  0.95146727  0.28377205
   0.25802834  0.94754039  0.27996671
   0.42849268  0.78983535  0.18359979
   0.93015324  0.27766031  0.18610253
   0.68903438  0.53422912  0.46834572
   0.59209209  0.11701560  0.09770078
   0.17815490  0.78221815  0.47472644
   0.42966512  0.27942836  0.47261175
   0.02216595  0.45061476  0.28272372
   0.42753026  0.52908020  0.18325408
   0.51356351  0.68548210  0.28510056
   0.59782977  0.11413417  0.38118364
   0.85800508  0.63336562  0.09355988
   0.77639337  0.95055583  0.28615792
   0.10977614  0.62273848  0.09034509
   0.94186189  0.02949651  0.18390547
   0.09468231  0.11914973  0.37659709
   0.33584918  0.35327174  0.08999996
   0.76846776  0.20310819  0.28468883
   0.42931533  0.76532258  0.47285962
   0.85139679  0.36745366  0.09367195
   0.34667970  0.11502474  0.37715194
   0.43031628  0.27076644  0.18572203
   0.77123349  0.68945463  0.28220234
   0.10654040  0.62286403  0.37782339
   0.93341726  0.54013924  0.18963137
   0.26536779  0.20595842  0.28039750
   0.93786732  0.02829944  0.47642971
   0.60484821  0.87025651  0.08982326
   0.68962734  0.78332360  0.18543408
   0.68472559  0.03163717  0.47684649
   0.26479871  0.69676550  0.28101033
   0.59931409  0.61498999  0.08920311
   0.85127353  0.37142129  0.38038625
   0.18294496  0.02799095  0.18512402
   0.10761290  0.87739914  0.09201924
   0.94553310  0.78903588  0.18765688
   0.93085498  0.52758844  0.47289101
   0.59842805  0.36425580  0.09394701
   0.34236599  0.87136037  0.09208857
   0.86154325  0.87837377  0.08835019
   0.76244787  0.44756837  0.28259065
   0.93488170  0.77699214  0.46540879
   0.43147766  0.03118405  0.18911434
   0.68391986  0.52526510  0.18636612
   0.84754328  0.85897077  0.38021571
   0.67947335  0.27580264  0.19343391
   0.09938859  0.11151900  0.09087981
   0.02206181  0.19999388  0.28048181
   0.93686713  0.28304113  0.46843656
   0.01242389  0.70115800  0.28310798
   0.34982534  0.61947033  0.08678367
   0.10077248  0.36363963  0.09213387
   0.18180255  0.02720570  0.46694937
   0.35857804  0.38390054  0.37529873
   0.18265007  0.79019181  0.18454442