ITEM: TIMESTEP
98
ITEM: NUMBER OF ATOMS
721
ITEM: BOX BOUNDS pp pp pp
-1.0000000000000000e-02 3.0e+01
-1.0000000000000000e-02 3.0e+01
-1.0000000000000000e-02 2.0e+01
ITEM: ATOMS id type x y z delta_energy delta_force
0 1 1.6098050333551581 -0.5360059154176707 4.270975894248066 0.0 1.164163038192001e-08
1 1 5.315827791315446 3.3101901548393347 8.667791754356474 0.0 0.1358383229059333
2 1 7.719710265821012 4.6493209121965995 8.606511919422449 0.003078937530517578 -0.1604259591236172
3 1 3.8478223010228647 5.982260851302859 10.821949583626232 0.0 0.002943114256699464
4 1 3.997226235984684 5.870673128336128 4.240256195298047 0.0 1.8095147602537054e-09
5 1 3.930754904441792 0.7720590857660046 4.253067872821796 0.0 -3.1185773741171374e-08
6 1 6.205810033830568 1.949707522724406 10.911311207409456 0.013102054595947266 -0.04341360478919443
7 1 4.760796646103967 -0.6674883146071973 6.471949086381838 0.0 1.054851442305882e-09
8 1 6.248841945636946 4.590477852835809 10.909951320980966 0.0019388198852539062 -0.08137825734855708
9 1 2.2975999147842243 0.7971191164811604 6.511398078003109 0.0 -3.3079800842994445e-09
10 1 7.547493155161421 -0.5960515092053362 2.2686541942638967 0.0 -1.8564678072596763e-08
11 1 7.576389844378586 4.6252963192581324 2.1500499795470303 0.0 -4.133794528904389e-09
12 1 3.1417768790355947 -0.5982147598209993 8.702340402668321 0.0 -2.7613020064931604e-09
13 1 0.8936502433135873 5.788823111543239 2.079107433590399 0.0 7.536765378457488e-09
14 1 6.922591067910909 5.9980274824034066 6.423174479615674 0.0 0.23066865780826581
15 1 5.295966908943278 3.3026472003429586 2.28936155334787 0.0 1.1141119582447345e-08
16 1 7.631588783223771 -3.185564041415734 2.2304130501582335 0.0 7.801780027572036e-09
17 1 6.1961479829468145 -3.193165963964629 10.801608578569216 0.0 1.1719358955497583e-09
18 1 0.8902506328174464 3.31493043367569 8.522220228233385 0.0 3.062874454062836e-09
19 1 10.556148444243005 -5.705608247263468 4.3579882859001025 0.0 1.7231495119673923e-09
20 1 14.262171202203293 -1.859412177006468 8.754804146008512 0.0 -0.007138404945292984
21 1 16.666053676708852 -0.520281419649196 8.693524311074485 0.0 -0.08242787006817906
22 1 12.794165711910708 0.8126585194570639 10.908961975278272 -0.06975841522216797 -0.05001661728347451
23 1 12.943569646872529 0.7010707964903355 4.327268586950084 0.0 -0.09300835144244321
24 1 12.877098315329636 -4.397543246079792 4.340080264473833 0.0 -3.569268147707305e-08
25 1 15.152153444718408 -3.2198948091213886 10.998323599061493 0.0 -0.0020669732529722817
26 1 13.707140056991813 -5.837090646452992 6.558961478033878 0.0 1.4697577876976453e-09
27 1 15.195185356524792 -0.5791244790099856 10.996963712633002 0.0505828857421875 0.015020530172412172
28 1 11.243943325672069 -4.372483215364635 6.598410469655145 0.0 1.1495637747271914e-08
29 1 16.493836566049268 -5.765653841051137 2.3556665859159365 0.0 -1.2575666008540765e-08
30 1 16.522733255266434 -0.5443060125876613 2.237062371199068 0.0 -4.976334899708945e-10
31 1 12.088120289923438 -5.767817091666795 8.789352794320358 0.0 -3.5947877868869327e-09
32 1 9.839993654201432 0.6192207796974429 2.1661198252424363 0.0 1.6157172544328802e-08
33 1 15.868934478798748 0.8284251505576119 6.510186871267711 0.0 0.0640839630639406
34 1 14.24231031983112 -1.8669551315028396 2.3763739449999046 0.0 -3.5515845042688454e-08
35 1 16.57793219411161 -8.355166373261529 2.3174254418102707 0.0 7.200161161735608e-09
36 1 15.142491393834659 -8.362768295810426 10.888620970221252 0.0 5.870735356183765e-09
37 1 9.83659404370529 -1.854671898170106 8.609232619885425 0.0 -0.041273491742646454
38 1 19.50249185513085 -10.875210579109268 4.445000677552138 0.0 -9.880292917152644e-09
39 1 23.208514613091136 -7.029014508852259 8.84181653766055 0.0 3.2368392272053015e-09
40 1 25.612397087596698 -5.689883751494991 8.780536702726526 0.0 -1.0396169924931087e-08
41 1 21.740509122798553 -4.356943812388732 10.995974366930309 0.0 5.656306839574299e-09
42 1 21.889913057760374 -4.468531535355465 4.414280978602119 0.0 8.777611970600674e-09
43 1 21.823441726217478 -9.567145577925592 4.42709265612587 0.0 2.043209323954187e-08
44 1 24.098496855606257 -8.389497140967189 11.085335990713531 0.0 -1.0970427288814477e-08
45 1 22.65348346787966 -11.006692978298794 6.645973869685912 0.0 -1.5790174445751148e-09
46 1 24.141528767412638 -5.748726810855782 11.083976104285043 0.0 4.258310870586257e-09
47 1 20.190286736559916 -9.542085547210434 6.685422861307183 0.0 -5.430256910798903e-09
48 1 25.44017997693711 -10.935256172896926 2.4426789775679714 0.0 1.2170159879865139e-09
49 1 25.469076666154276 -5.713908344433461 2.324074762851105 0.0 1.7169975496944545e-08
50 1 21.034463700811283 -10.937419423512592 8.876365185972395 0.0 4.081687307588844e-09
51 1 18.786337065089278 -4.550381552148355 2.253132216894474 0.0 -1.2593218134959727e-08
52 1 24.815277889686595 -4.3411771812881845 6.597199262919745 0.0 -7.069879959242797e-10
53 1 23.18865373071896 -7.036557463348633 2.4633863366519444 0.0 -1.3382451036214604e-08
54 1 25.524275604999456 -13.524768705107329 2.4044378334623078 0.0 -2.4283504651556598e-09
55 1 24.088834804722502 -13.53237062765622 10.97563336187329 0.0 -5.707766065343733e-10
56 1 18.78293745459313 -7.024274230015905 8.69624501153746 0.0 1.5504628830820266e-09
57 1 1.6098050333551581 9.857148004293727 4.24884879998834 0.0 8.748332225305688e-09
58 1 5.315827791315446 13.703344074550731 8.645664660096749 0.0 0.04552424992926242
59 1 7.719710265821012 15.042474831907999 8.584384825162722 0.0 0.027692189529265165
60 1 3.8478223010228647 16.375414771014256 10.799822489366509 0.0 8.53062809280658e-09
61 1 3.997226235984684 16.26382704804754 4.218129101038321 0.0 -4.860752272906055e-09
62 1 3.930754904441792 11.165213005477401 4.23094077856207 0.0 2.5210599385872e-08
63 1 6.205810033830568 12.342861442435803 10.88918411314973 0.0018839836120605469 -0.023125197849594825
64 1 4.760796646103967 9.7256656051042 6.4498219921221125 0.0 1.2430852736056153e-09
65 1 6.248841945636946 14.98363177254721 10.887824226721241 0.0 0.004662971092671719
66 1 2.2975999147842243 11.190273036192556 6.489270983743385 0.0 1.321078552107835e-09
67 1 7.547493155161421 9.797102410506064 2.2465271000041733 0.0 5.46471923268399e-09
68 1 7.576389844378586 15.018450238969535 2.1279228852873047 0.0 1.5243491247041163e-08
69 1 3.1417768790355947 9.7949391598904 8.680213308408595 0.0 -2.639554574912495e-09
70 1 0.8936502433135873 16.181977031254647 2.0569803393306736 0.0 2.0500978081816612e-08
71 1 6.922591067910909 16.39118140211481 6.401047385355948 0.0 -1.0897042573843052e-09
72 1 5.295966908943278 13.695801120054355 2.2672344590881446 0.0 -3.7335198488364085e-08
73 1 7.631588783223771 7.207589878295662 2.208285955898508 0.0 -5.112682388563883e-09
74 1 6.1961479829468145 7.199987955746771 10.779481484309494 0.017410755157470703 0.03776648750840167
75 1 0.8902506328174464 13.708084353387088 8.50009313397366 0.0 2.0855367155458993e-09
76 1 10.556148444243005 4.687545672447927 4.335861191640377 0.0018558502197265625 0.01137858893785687
77 1 14.262171202203293 8.533741742704931 8.732677051748787 0.9946832656860352 -0.047144324035712074
78 1 16.666053676708852 9.872872500062199 8.67139721681476 0.0631875991821289 -0.06283199435887366
79 1 12.794165711910708 11.205812439168461 10.886834881018546 0.7374753952026367 -0.0982943843217978
80 1 12.943569646872529 11.094224716201737 4.305141492690359 0.0006122589111328125 0.06081169631405267
81 1 12.877098315329636 5.995610673631604 4.317953170214107 0.011000633239746094 -0.24358799761710515
82 1 15.152153444718408 7.173259110590008 10.976196504801768 -0.07584190368652344 1.03431153808545
83 1 13.707140056991813 4.5560632732584025 6.53683438377415 0.07097625732421875 -0.0720336092533562
84 1 15.195185356524792 9.814029440701411 10.974836618373278 0.5490894317626953 -0.29944278710048694
85 1 11.243943325672069 6.020670704346764 6.57628337539542 0.016221046447753906 -0.0788763313961264
86 1 16.493836566049268 4.627500078660265 2.333539491656208 0.0 0.002399677430358238
87 1 16.522733255266434 9.848847907123734 2.214935276939342 0.0 -0.0019679756877897803
88 1 12.088120289923438 4.625336828044604 8.767225700060633 -0.039908409118652344 -0.06989268320948208
89 1 9.839993654201432 11.012374699408841 2.1439927309827107 0.0 -2.5850195214838223e-05
90 1 15.868934478798748 11.221579070269009 6.488059777007986 -0.04139566421508789 0.027890103743456393
91 1 14.24231031983112 8.526198788208559 2.3542468507401817 0.0 -0.005118830127658791
92 1 16.57793219411161 2.037987546449866 2.295298347550545 0.0 -3.371262602414049e-09
93 1 15.142491393834659 2.0303856239009743 10.866493875961527 -0.029664993286132812 0.22619583186480044
94 1 9.83659404370529 8.538482021541288 8.587105525625697 -0.008193016052246094 -0.04065432363207057
95 1 19.50249185513085 -0.4820566593978697 4.422873583292414 0.0 -6.464218771373709e-09
96 1 23.208514613091136 3.3641394108591403 8.819689443400822 0.0 -0.023495097599466955
97 1 25.612397087596698 4.703270168216404 8.758409608466797 0.0 8.848970056707373e-09
98 1 21.740509122798553 6.036210107322667 10.973847272670582 0.06024742126464844 -0.01680388256722523
99 1 21.889913057760374 5.924622384355937 4.392153884342395 0.0 0.005355141934116847
100 1 21.823441726217478 0.8260083417858102 4.4049655618661445 0.0 -1.0668811722958083e-08
101 1 24.098496855606257 2.003656778744208 11.063208896453805 0.0 0.0008737884004469398
102 1 22.65348346787966 -0.6135390585873957 6.623846775426187 0.0 -4.343396795003507e-09
103 1 24.141528767412638 4.644427108855615 11.061849010025314 0.0 0.001956112973620028
104 1 20.190286736559916 0.8510683725009685 6.663295767047457 0.0 1.23345986202672e-09
105 1 25.44017997693711 -0.5421022531855293 2.420551883308248 0.0 -5.207219100356042e-09
106 1 25.469076666154276 4.679245575277937 2.3019476685913793 0.0 -6.7058920638629615e-09
107 1 21.034463700811283 -0.5442655038011921 8.85423809171267 0.0 -8.112490679224038e-10
108 1 18.786337065089278 5.842772367563043 2.231005122634748 0.0 0.003305091169706953
109 1 24.815277889686595 6.051976738423212 6.57507216866002 0.0 1.1398069849066772e-09
110 1 23.18865373071896 3.3565964563627624 2.441259242392216 0.0 -1.3150717292909064e-08
111 1 25.524275604999456 -3.1316147853959304 2.382310739202582 0.0 -4.386975033243701e-09
112 1 24.088834804722502 -3.1392167079448203 10.953506267613564 0.0 -1.7001383495474087e-09
113 1 18.78293745459313 3.3688796896954916 8.674117917277734 0.009421348571777344 0.06459365343530997
114 1 1.6098050333551581 20.250301924005125 4.226721705728614 0.0 -9.386363741814563e-09
115 1 5.315827791315446 24.096497994262126 8.623537565837022 0.0 7.964695569739888e-09
116 1 7.719710265821012 25.435628751619397 8.562257730902997 0.0 1.6166265548456238e-10
117 1 3.8478223010228647 26.768568690725658 10.777695395106782 0.0 4.200606251725247e-09
118 1 3.997226235984684 26.656980967758923 4.1960020067785955 0.0 3.6824605031959834e-09
119 1 3.930754904441792 21.5583669251888 4.208813684302345 0.0 3.664773862155357e-08
120 1 6.205810033830568 22.736015362147196 10.867057018890007 0.0 6.557175857846431e-09
121 1 4.760796646103967 20.1188195248156 6.427694897862387 0.0 -2.5821380450485876e-09
122 1 6.248841945636946 25.376785692258608 10.865697132461515 0.0 9.35822386249896e-09
123 1 2.2975999147842243 21.583426955903956 6.467143889483657 0.0 -5.705015404533498e-09
124 1 7.547493155161421 20.19025633021746 2.2244000057444455 0.0 -1.896116591515451e-08
125 1 7.576389844378586 25.411604158680937 2.105795791027579 0.0 -1.8552332947674444e-08
126 1 3.1417768790355947 20.1880930796018 8.65808621414887 0.0 -4.694300587138045e-09
127 1 0.8936502433135873 26.575130950966045 2.034853245070948 0.0 -1.2397889048720856e-08
128 1 6.922591067910909 26.7843353218262 6.378920291096223 0.0 -2.720971323255661e-09
129 1 5.295966908943278 24.088955039765754 2.245107364828419 0.0 1.0283415008416341e-08
130 1 7.631588783223771 17.600743798007063 2.186158861638782 0.0 -2.7636847810263987e-09
131 1 6.1961479829468145 17.593141875458166 10.757354390049764 0.0 1.918685446633539e-09
132 1 0.8902506328174464 24.10123827309849 8.477966039713934 0.0 3.7200027225292587e-09
133 1 10.556148444243005 15.080699592159323 4.3137340973806495 0.0 -0.0050340244397446
134 1 14.262171202203293 18.92689566241632 8.710549957489063 0.0 1.1560043061686898e-09
135 1 16.666053676708852 20.266026419773603 8.649270122555034 0.0 1.8882218844051835e-09
136 1 12.794165711910708 21.598966358879863 10.86470778675882 0.0 -1.6908687228145425e-09
137 1 12.943569646872529 21.487378635913128 4.28301439843063 0.0 -4.258564417769506e-09
138 1 12.877098315329636 16.38876459334301 4.295826075954381 0.0 -1.0579014109168838e-08
139 1 15.152153444718408 17.566413030301412 10.954069410542042 0.0 0.004851083184629346
140 1 13.707140056991813 14.949217192969805 6.514707289514424 0.0 0.1007387475519124
141 1 15.195185356524792 20.207183360412813 10.952709524113551 0.0 4.799308894742893e-09
142 1 11.243943325672069 16.413824624058158 6.554156281135694 0.0 -0.07845152959693721
143 1 16.493836566049268 15.02065399837166 2.3114123973964826 0.0 -8.570922860329233e-10
144 1 16.522733255266434 20.24200182683514 2.192808182679616 0.0 1.1733141125347402e-08
145 1 12.088120289923438 15.018490747756005 8.745098605800907 0.03193044662475586 0.04587040504477623
146 1 9.839993654201432 21.40552861912024 2.121865636722985 0.0 -2.457363701413584e-09
147 1 15.868934478798748 21.614732989980403 6.4659326827482575 0.0 -3.583380689398119e-09
148 1 14.24231031983112 18.919352707919955 2.332119756480456 0.0 1.297193874538749e-08
149 1 16.57793219411161 12.431141466161266 2.2731712532908195 0.0 5.659140239755445e-09
150 1 15.142491393834659 12.423539543612375 10.844366781701801 0.0037488937377929688 0.16000837774091708
151 1 9.83659404370529 18.931635941252694 8.56497843136597 0.0 -4.59793633722505e-09
152 1 19.50249185513085 9.911097260313527 4.400746489032689 0.0 -0.002604055758041346
153 1 23.208514613091136 13.757293330570532 8.7975623491411 0.0 5.884722778515261e-09
154 1 25.612397087596698 15.09642408792781 8.736282514207073 0.0 -3.2473655986464678e-09
155 1 21.740509122798553 16.429364027034065 10.951720178410858 0.0 2.424758643870817e-09
156 1 21.889913057760374 16.31777630406733 4.37002679008267 0.0 -6.808771046973305e-10
157 1 21.823441726217478 11.21916226149721 4.382838467606419 0.0 2.4016101329848993e-09
158 1 24.098496855606257 12.396810698455605 11.04108180219408 0.0 -0.004487465186350126
159 1 22.65348346787966 9.779614861124003 6.601719681166461 0.0 0.0451767556248672
160 1 24.141528767412638 15.037581028567013 11.03972191576559 0.0 5.0300038578754425e-09
161 1 20.190286736559916 11.244222292212362 6.641168672787732 0.0 -0.03432274516312142
162 1 25.44017997693711 9.851051666525866 2.39842478904852 0.0 6.642786432031755e-09
163 1 25.469076666154276 15.072399494989336 2.2798205743316533 0.0 3.71649133690255e-09
164 1 21.034463700811283 9.848888415910208 8.832110997452945 0.012877941131591797 -0.01123658400294654
165 1 18.786337065089278 16.235926287274445 2.2088780283750222 0.0 1.2168768770415284e-08
166 1 24.815277889686595 16.44513065813461 6.552945074400297 0.0 -2.3104175933541526e-09
167 1 23.18865373071896 13.74975037607416 2.419132148132493 0.0 2.457356795826371e-08
168 1 25.524275604999456 7.261539134315473 2.3601836449428566 0.0 3.2236707470101322e-09
169 1 24.088834804722502 7.25393721176658 10.93137917335384 0.0 0.025144254722062984
170 1 18.78293745459313 13.762033609406892 8.651990823018009 0.0 0.049370883463521795
171 1 1.6357494292467312 1.9077106606060918 10.862488651367219 0.0 4.6112889617866415e-09
172 1 7.631857173526098 1.9178391027885864 8.649631411644195 0.024079322814941406 -0.08315381483790624
173 1 2.374001687513202 5.821296153053656 6.5219804708826725 0.0 -9.64683988247117e-09
174 1 1.6403120643862867 7.119007690318475 4.280151707576978 0.0 1.050869391505671e-10
175 1 8.289323950792241 3.303514015301806 4.37112384927961 0.0 0.02713557794245164
176 1 0.865200871266964 8.481707444362584 2.018119749293676 0.0 -1.1841746472285308e-08
177 1 2.4106816954978405 8.46708801083022 6.490298880566235 0.0 1.280527670011189e-09
178 1 1.5658784872077007 4.634091953828027 10.891619668408408 0.0 1.2899717405367994e-10
179 1 3.1969758178807792 7.1596615881543935 2.074440018485092 0.0 -3.151249117205879e-08
180 1 4.683410775599787 2.0027472887607622 6.484631948029379 0.0 2.3344894350962875e-09
181 1 0.10574577911669697 7.138648746778451 6.458416356014858 0.0 8.540856494265725e-10
182 1 4.640915644398069 4.606467976552613 6.4752892784839435 0.0 -2.9734419648708155e-09
183 1 6.147479874791583 -0.626931208546667 10.854870350215267 0.0 0.03180098201013634
184 1 3.881639479116018 3.267255285411333 10.992138718835829 0.0 -0.013492033427447675
185 1 10.582092840134575 -3.2618916712397046 10.949501043019259 0.0 -0.012599790728683086
186 1 16.578200584413942 -3.251763229057209 8.736643803296229 0.0 5.441966294261746e-09
187 1 11.320345098401047 0.6516938212078571 6.608992862534713 0.0055522918701171875 0.020759354721030854
188 1 10.58665547527413 1.949405358472676 4.367164099229019 0.0 0.02853707147453982
189 1 17.23566736168008 -1.8660883165439923 4.458136240931647 0.0 -7.271445112699837e-10
190 1 9.811544282154808 3.3121051125167833 2.105132140945713 0.0 -0.0023783015115173
191 1 11.357025106385684 3.2974856789844234 6.577311272218273 -0.030913352966308594 0.1679884686100277
192 1 10.512221898095543 -0.5355103780177695 10.978632060060445 0.043528079986572266 -0.10075880864262696
193 1 12.143319228768624 1.990059256308597 2.1614524101371293 0.0 0.00016384737879615585
194 1 13.629754186487627 -3.166855043085034 6.571644339681416 0.0 8.215228775032557e-10
195 1 9.05208919000454 1.9690464149326559 6.545428747666896 -0.0028257369995117188 -0.0054908327522473765
196 1 13.587259055285909 -0.5631343552931849 6.56230167013598 0.0 0.00032298571452614444
197 1 15.093823285679429 -5.796533540392465 10.941882741867303 0.0 -2.330538401151827e-09
198 1 12.827982890003865 -1.9023470464344614 11.07915111048787 0.02401256561279297 0.009891560693155943
199 1 19.528436251022423 -8.4314940030855 11.0365134346713 0.0 5.429420524283302e-10
200 1 25.524543995301784 -8.42136556090301 8.823656194948272 0.0 -6.768653387778656e-09
201 1 20.266688509288894 -4.517908510637938 6.696005254186753 0.0 -1.5820907917074578e-09
202 1 19.532998886161977 -3.220196973373122 4.4541764908810535 0.0 4.190668104198103e-09
203 1 26.182010772567928 -7.035690648389785 4.545148632583684 0.0 3.924485819650769e-09
204 1 18.757887693042647 -1.8574972193290122 2.1921445325977507 0.0 -9.065115880169117e-09
205 1 20.30336851727353 -1.872116652861374 6.66432366387031 0.0 -1.131628013517627e-09
206 1 19.458565308983385 -5.705112709863564 11.065644451712483 0.0 -1.0399701377838966e-09
207 1 21.08966263965647 -3.179543075537202 2.248464801789167 0.0 1.555740736236544e-08
208 1 22.576097597375476 -8.33645737493083 6.658656731333453 0.0 -2.075631777564979e-09
209 1 17.998432600892386 -3.2005559169131432 6.6324411393189315 0.0 1.0596408889229636e-09
210 1 22.533602466173758 -5.732736687138985 6.6493140617880195 0.0 -2.978485472149295e-09
211 1 24.040166696567272 -10.966135872238262 11.028895133519342 0.0 -4.498803288233155e-09
212 1 21.7743263008917 -7.071949378280259 11.166163502139906 0.0 -4.684771570673263e-09
213 1 1.6357494292467312 12.300864580317489 10.840361557107496 0.0 -1.0066067424041591e-09
214 1 7.631857173526098 12.310993022499986 8.627504317384467 -0.002025604248046875 -0.010162700136807229
215 1 2.374001687513202 16.214450072765054 6.49985337662295 0.0 -2.818701605455942e-09
216 1 1.6403120643862867 17.512161610029864 4.2580246133172555 0.0 2.599357937227431e-09
217 1 8.289323950792241 13.696667935013203 4.348996755019884 0.0 0.03921174045786316
218 1 0.865200871266964 18.874861364073972 1.9959926550339504 0.0 8.215615188156278e-09
219 1 2.4106816954978405 18.86024193054162 6.46817178630651 0.0 -3.8807978774979546e-09
220 1 1.5658784872077007 15.027245873539426 10.869492574148683 0.0 -4.103296702417936e-09
221 1 3.1969758178807792 17.552815507865795 2.0523129242253666 0.0 2.9700327752735234e-09
222 1 4.683410775599787 12.39590120847216 6.462504853769654 0.0 2.0805657197087157e-09
223 1 0.10574577911669697 17.531802666489853 6.436289261755133 0.0 3.048725064069835e-09
224 1 4.640915644398069 14.999621896264015 6.453162184224218 0.0 -4.9384891315229495e-09
225 1 6.147479874791583 9.766222711164732 10.83274325595554 0.07802200317382812 0.06109839527028055
226 1 3.881639479116018 13.660409205122733 10.970011624576102 0.0 -0.0058822535246436936
227 1 10.582092840134575 7.131262248471693 10.927373948759536 0.3762655258178711 -0.19239045284327316
228 1 16.578200584413942 7.141390690654189 8.71451670903651 0.030637741088867188 -0.13590750238809535
229 1 11.320345098401047 11.044847740919254 6.586865768274987 -0.023824214935302734 0.06869280577435616
230 1 10.58665547527413 12.342559278184073 4.345037004969293 0.0 0.08679989325546113
231 1 17.23566736168008 8.527065603167408 4.436009146671921 0.005773067474365234 0.15146051915425254
232 1 9.811544282154808 13.70525903222818 2.0830050466859875 0.0 -9.770722453339431e-09
233 1 11.357025106385684 13.690639598695821 6.555184177958547 0.005255699157714844 -0.009053364436022643
234 1 10.512221898095543 9.85764354169363 10.95650496580072 0.696650505065918 -0.13402319185861844
235 1 12.143319228768624 12.383213176019996 2.1393253158774037 0.0 -0.0022882724578289215
236 1 13.629754186487627 7.226298876626364 6.549517245421691 0.21231746673583984 -0.028480332592630164
237 1 9.05208919000454 12.362200334644054 6.52330165340717 0.00042438507080078125 0.01028485313545792
238 1 13.587259055285909 9.830019564418214 6.540174575876255 0.01399850845336914 0.06347389832471625
239 1 15.093823285679429 4.59662037931893 10.919755647607579 0.45153141021728516 -0.06318212300885441
240 1 12.827982890003865 8.490806873276934 11.057024016228146 -0.06873798370361328 0.7047538084155887
241 1 19.528436251022423 1.9616599166258943 11.014386340411573 0.04989004135131836 -0.029509488313129162
242 1 25.524543995301784 1.9717883588083893 8.801529100688544 0.0 8.417831182105928e-09
243 1 20.266688509288894 5.875245409073456 6.673878159927025 0.00017881393432617188 0.07522599836475555
244 1 19.532998886161977 7.1729569463382745 4.432049396621328 0.0 0.045716999789947935
245 1 26.182010772567928 3.357463271321608 4.523021538323959 0.0 -9.320277327695692e-09
246 1 18.757887693042647 8.535656700382384 2.1700174383380246 0.0 0.000591225756779834
247 1 20.30336851727353 8.521037266850024 6.642196569610587 -0.004456043243408203 0.013322565856377602
248 1 19.458565308983385 4.688041209847832 11.043517357452757 -0.0671529769897461 -0.04612654674992578
249 1 21.08966263965647 7.2136108441742 2.2263377075294413 0.0 -1.8925028211214112e-08
250 1 22.576097597375476 2.0566965447805643 6.6365296370737275 0.0 5.346389234106574e-09
251 1 17.998432600892386 7.192598002798256 6.610314045059206 -0.0708608627319336 0.16674019455216918
252 1 22.533602466173758 4.660417232572414 6.627186967528292 0.0 0.003462093160209498
253 1 24.040166696567272 -0.5729819525268667 11.006768039259613 0.0 -1.7569113663906677e-09
254 1 21.7743263008917 3.3212045414311344 11.144036407880183 -0.0047359466552734375 0.04386776587206709
255 1 1.6357494292467312 22.69401850002889 10.818234462847768 0.0 3.4910139223853776e-09
256 1 7.631857173526098 22.704146942211384 8.605377223124744 0.0 7.572259153043603e-09
257 1 2.374001687513202 26.607603992476452 6.477726282363224 0.0 -2.5575852269366095e-09
258 1 1.6403120643862867 27.905315529741262 4.23589751905753 0.0 1.5627858868105804e-09
259 1 8.289323950792241 24.089821854724605 4.326869660760158 0.0 -1.541787503223091e-09
260 1 0.865200871266964 29.26801528378537 1.9738655607742246 0.0 -7.433511139964821e-09
261 1 2.4106816954978405 29.253395850253014 6.446044692046784 0.0 -4.754317217692261e-10
262 1 1.5658784872077007 25.420399793250823 10.847365479888957 0.0 5.090215998704295e-09
263 1 3.1969758178807792 27.945969427577186 2.030185829965641 0.0 2.1140846628853183e-08
264 1 4.683410775599787 22.78905512818356 6.440377759509928 0.0 2.4652191676910462e-09
265 1 0.10574577911669697 27.924956586201244 6.414162167495407 0.0 1.0661878463436025e-09
266 1 4.640915644398069 25.39277581597541 6.431035089964492 0.0 1.592634066294174e-09
267 1 6.147479874791583 20.159376630876125 10.810616161695815 0.0 2.982407071305815e-09
268 1 3.881639479116018 24.05356312483413 10.947884530316383 0.0 -6.3539989103578165e-09
269 1 10.582092840134575 17.52441616818309 10.905246854499811 0.0 -0.005474213548436885
270 1 16.578200584413942 17.534544610365586 8.692389614776781 0.0 1.3708658930244866e-09
271 1 11.320345098401047 21.438001660630654 6.564738674015262 0.0 -2.469972559815403e-10
272 1 10.58665547527413 22.73571319789547 4.322909910709565 0.0 -6.437555016836072e-09
273 1 17.23566736168008 18.920219522878806 4.4138820524121956 0.0 5.360159871514725e-09
274 1 9.811544282154808 24.09841295193958 2.060877952426262 0.0 3.151272798262994e-09
275 1 11.357025106385684 24.083793518407216 6.533057083698819 0.0 -4.6568237321853445e-09
276 1 10.512221898095543 20.250797461405025 10.934377871540994 0.0 -4.723107183135511e-10
277 1 12.143319228768624 22.776367095731388 2.117198221617678 0.0 -1.9165217413075197e-08
278 1 13.629754186487627 17.619452796337765 6.527390151161964 0.0 -2.6269261071965033e-09
279 1 9.05208919000454 22.755354254355453 6.501174559147443 0.0 2.9129537115757387e-09
280 1 13.587259055285909 20.22317348412961 6.518047481616529 0.0 1.114564718296407e-09
281 1 15.093823285679429 14.989774299030332 10.897628553347852 0.08461427688598633 0.011268089589551597
282 1 12.827982890003865 18.883960792988333 11.034896921968414 0.0 0.0014044363869628318
283 1 19.528436251022423 12.354813836337291 10.992259246151848 0.028838157653808594 -0.003891645764002083
284 1 25.524543995301784 12.364942278519788 8.779402006428821 0.0 -7.592326184413523e-09
285 1 20.266688509288894 16.26839932878486 6.651751065667299 0.0 4.166151756912484e-09
286 1 19.532998886161977 17.566110866049673 4.409922302361605 0.0 -1.1174075276176865e-09
287 1 26.182010772567928 13.75061719103301 4.500894444064233 0.0 6.54883103301529e-09
288 1 18.757887693042647 18.928810620093785 2.147890344078299 0.0 1.4745055176845767e-08
289 1 20.30336851727353 18.914191186561418 6.620069475350862 0.0 -5.700819150078473e-09
290 1 19.458565308983385 15.08119512955923 11.021390263193032 0.0 -0.007662190788630674
291 1 21.08966263965647 17.606764763885593 2.2042106132697152 0.0 3.146143900956133e-09
292 1 22.576097597375476 12.449850464491965 6.614402542814002 0.0 -5.326093233115614e-09
293 1 17.998432600892386 17.585751922509655 6.588186950799481 0.0 3.5045204238581817e-09
294 1 22.533602466173758 15.053571152283808 6.605059873268567 0.0 2.0420219543071383e-09
295 1 24.040166696567272 9.820171967184535 10.98464094499989 0.0 -0.0015237639244989054
296 1 21.7743263008917 13.714358461142535 11.121909313620455 0.0 0.013624308717602451
297 1 3.1758624474310775 -0.5360128918180145 2.0954584075196676 0.0 1.0744801215434308e-08
298 1 6.158752267489302 -3.1223974081772763 4.367162203762405 0.0 -2.014877736877807e-09
299 1 6.170293050489344 4.62038116196904 4.353526465233633 0.0 -3.293760680866953e-09
300 1 5.376483999641268 -1.9275686696389105 2.2257673730515566 0.0 9.939662981572894e-10
301 1 3.892822408379626 0.6657266802837878 10.747005647483645 0.0 -0.0038068054075837965
302 1 2.33544294741228 3.3013077588033 6.418826085365769 0.0 -3.038421875212194e-10
303 1 6.189348761954533 1.9604667694853788 4.355454593038417 0.0 -5.59983870385139e-09
304 1 0.14716734910910945 9.814750944783817 6.410894333627725 0.0 -2.6880856845989953e-09
305 1 5.4052017619902175 0.6191004580942843 8.637375974557388 0.0 0.01618863932687699
306 1 3.0067765569653053 2.0586478214645387 2.206775392413174 0.0 -1.236125551917766e-08
307 1 0.9539485979029724 3.2262610270135896 2.161405709318827 0.0 2.3930046832987273e-10
308 1 7.5907039938360095 -3.1340853062543674 8.578893460689393 0.0 1.4500984302223685e-09
309 1 7.566817256928939 1.9928374658520749 2.2197547935267243 0.0 -1.54853306288949e-08
310 1 0.11415534192292796 4.54651758381356 6.364754178403618 0.0 5.079141190966752e-09
311 1 6.156426218202465 -0.626800302379459 4.36893512120127 0.0 -9.302674630617958e-09
312 1 8.349264451645187 -1.902859642309128 10.725236691634521 0.0 0.028765770624051612
313 1 12.122205858318921 -5.7056152236638145 2.1824707991717047 0.0 -2.8382909356139407e-09
314 1 15.10509567837714 -8.291999740023073 4.454174595414441 0.0 6.2969206793273e-09
315 1 15.116636461377192 -0.5492211698767591 4.440538856885668 0.0 -6.823348025486453e-09
316 1 14.322827410529113 -7.097171001484705 2.312779764703594 0.0 -5.047115669842839e-09
317 1 12.839165819267468 -4.503875651562009 10.834018039135682 0.0 -0.0017155796862014239
318 1 11.281786358300126 -1.8682945730424976 6.505838477017806 0.0 0.03307335762031844
319 1 15.135692172842381 -3.2091355623604194 4.442466984690455 0.0 -2.622944750285683e-09
320 1 9.093510759996953 4.6451486129380255 6.497906725279762 -0.01946544647216797 -0.02445869139438145
321 1 14.351545172878064 -4.550501873751517 8.724388366209423 0.0 5.930834892642345e-09
322 1 11.953119967853148 -3.1109545103812573 2.293787784065209 0.0 1.8224932174515374e-08
323 1 9.900292008790812 -1.943341304832205 2.248418100970864 0.0 5.025159455218642e-09
324 1 16.537047404723854 -8.303687638100165 8.665905852341428 0.0 5.794158208782818e-11
325 1 16.513160667816784 -3.1767648659937224 2.3067671851787614 0.0 6.5380336700116e-09
326 1 9.06049875281077 -0.6230847480322348 6.451766570055655 0.0 0.0472152571142915
327 1 15.102769629090313 -5.796402634225258 4.4559475128533075 0.0 -6.715417388836187e-09
328 1 17.295607862533036 -7.072461974154927 10.812249083286558 0.0 -6.219399439899576e-10
329 1 21.068549269206766 -10.875217555509607 2.269483190823742 0.0 -1.223504297875877e-09