ITEM: TIMESTEP
98
ITEM: NUMBER OF ATOMS
81
ITEM: BOX BOUNDS pp pp pp
-1.0000000000000000e-02 1.0e+01
-1.0000000000000000e-02 1.0e+01
-1.0000000000000000e-02 2.0e+01
ITEM: ATOMS id type x y z delta_energy delta_force