Pt Pd Ni Co Fe
           1
     8.937646   -5.180215   -0.056711
     0.008019   10.380410    0.035472
    -0.029172    0.028416   22.914279
 Pt  Pd  Ni  Co  Fe 
  15  14  16  18  17
Direct configuration=     1
  0.93300842  0.03540458  0.18702892
  0.93702778  0.78212340  0.46577739
  0.93093995  0.03329250  0.46704531
  0.84102530  0.11779868  0.09345992
  0.68332631  0.28621446  0.46477487
  0.34430746  0.11549093  0.09477518
  0.93283811  0.28623642  0.46686684
  0.10681027  0.11474112  0.37629364
  0.43999951  0.04039808  0.18985475
  0.10185610  0.36900861  0.37685808
  0.34418020  0.87393906  0.37407344
  0.59967277  0.60666397  0.37607499
  0.34629138  0.61566042  0.09431243
  0.51490918  0.45128256  0.28422403
  0.67664962  0.52173737  0.18562719
  0.42755634  0.53288925  0.19234824
  0.84131980  0.61394519  0.37736764
  0.02173474  0.45467606  0.27808167
  0.34958585  0.86415956  0.09361907
  0.43156832  0.03763791  0.46463463
  0.93361788  0.52826300  0.46864039
  0.76757161  0.94999062  0.28118743
  0.02251051  0.70425173  0.28297400
  0.34913822  0.36773241  0.09568982
  0.93307916  0.78265223  0.18594076
  0.84621151  0.61292756  0.09177382
  0.18735473  0.77554181  0.18753438
  0.51211358  0.94257576  0.28044734
  0.76124282  0.44652634  0.28359833
  0.18001852  0.28575338  0.46727645
  0.09430783  0.36339053  0.09731050
  0.09520374  0.86713946  0.09470589
  0.68240595  0.03848462  0.46701802
  0.16879052  0.78187670  0.46577955
  0.67843465  0.78712210  0.18694270
  0.18054271  0.28375090  0.18654460
  0.18808014  0.03037959  0.46588981
  0.93188884  0.52145487  0.18709702
  0.41937114  0.78002151  0.46908826
  0.35846883  0.12406208  0.37439150
  0.60158620  0.86302205  0.09698665
  0.35556343  0.61547950  0.37258784
  0.17424825  0.52810761  0.47079640
  0.51448552  0.19618155  0.28350215
  0.09415491  0.11111849  0.09534098
  0.59352826  0.36406197  0.37475104
  0.36109003  0.37532581  0.37463915
  0.26248419  0.95465432  0.28126515
  0.01798222  0.95149086  0.28168931
  0.68394584  0.53142910  0.46747411
  0.84556994  0.36333188  0.37580572
  0.26909381  0.69496931  0.28088109
  0.27717402  0.20673328  0.28069674
  0.44686639  0.78642370  0.18922785
  0.69025987  0.28103529  0.18374033
  0.18628202  0.03817026  0.18744803
  0.68288548  0.77573314  0.46946207
  0.93016373  0.28759311  0.18609696
  0.60872370  0.35791273  0.09309195
  0.09034483  0.60304829  0.09745930
  0.68038046  0.03073797  0.18640674
  0.26873071  0.46022292  0.28411756
  0.85392529  0.87368428  0.37190896
  0.76353266  0.19801826  0.28027515
  0.43183504  0.27828927  0.18807748
  0.16839677  0.51837876  0.18651956
  0.09469600  0.61470130  0.37761482
  0.42298481  0.27552552  0.46320649
  0.02049081  0.20736949  0.28002251
  0.60168503  0.12345510  0.09532779
  0.75832725  0.70328787  0.28318729
  0.60453080  0.86665014  0.37421221
  0.50880128  0.69705070  0.28254284
  0.60511458  0.62633548  0.09468193
  0.60295897  0.12343598  0.37536564
  0.84377682  0.86703614  0.09334830
  0.09208796  0.86642569  0.37568914
  0.84528668  0.11844604  0.37515915
  0.42550519  0.52375303  0.46754869
  0.85564808  0.37271564  0.09380750
Direct configuration=     2
  0.93300842  0.03540458  0.18702892
  0.93574490  0.78337825  0.46683787
  0.93009201  0.03251550  0.46755950
  0.84102530  0.11779868  0.09345992
  0.68101293  0.28566244  0.46538416
  0.34430746  0.11549093  0.09477518
  0.93264981  0.28414155  0.46778337
  0.10731753  0.11530803  0.37520224
  0.43999951  0.04039808  0.18985475
  0.10300895  0.37016969  0.37588435
  0.34353695  0.87149106  0.37355665
  0.59858564  0.61039830  0.37688386
  0.34629138  0.61566042  0.09431243
  0.51301089  0.44937865  0.28359571
  0.67664962  0.52173737  0.18562719
  0.42755634  0.53288925  0.19234824
  0.84372488  0.61388961  0.37643267
  0.02119407  0.45336231  0.27850358
  0.34958585  0.86415956  0.09361907
  0.43139188  0.03679330  0.46581799
  0.93470478  0.53033652  0.46944385
  0.76796079  0.95049626  0.28125181
  0.02238948  0.70502419  0.28309970
  0.34913822  0.36773241  0.09568982
  0.93307916  0.78265223  0.18594076
  0.84621151  0.61292756  0.09177382
  0.18735473  0.77554181  0.18753438
  0.51242400  0.94319285  0.28074665
  0.76212258  0.44562333  0.28335099
  0.18183132  0.28615255  0.46761896
  0.09430783  0.36339053  0.09731050
  0.09520374  0.86713946  0.09470589
  0.68195525  0.03692379  0.46671559
  0.17088298  0.78176049  0.46575354
  0.67843465  0.78712210  0.18694270
  0.18054271  0.28375090  0.18654460
  0.18770477  0.03084795  0.46602181
  0.93188884  0.52145487  0.18709702
  0.41979974  0.77943157  0.46872241
  0.35821906  0.12468449  0.37384030
  0.60158620  0.86302205  0.09698665
  0.35526472  0.61614212  0.37279815
  0.17666419  0.52968636  0.47060559
  0.51419117  0.19611576  0.28353653
  0.09415491  0.11111849  0.09534098
  0.59297555  0.36234003  0.37509171
  0.35916696  0.37360428  0.37495230
  0.26240862  0.95565904  0.28121070
  0.01901613  0.95234170  0.28170285
  0.68220193  0.53108919  0.46776915
  0.84525660  0.36245512  0.37510156
  0.26978034  0.69506627  0.28096358
  0.27558820  0.20542917  0.28059447
  0.44686639  0.78642370  0.18922785
  0.69025987  0.28103529  0.18374033
  0.18628202  0.03817026  0.18744803
  0.68207989  0.77568673  0.46905558
  0.93016373  0.28759311  0.18609696
  0.60872370  0.35791273  0.09309195
  0.09034483  0.60304829  0.09745930
  0.68038046  0.03073797  0.18640674
  0.26840972  0.45921429  0.28409377
  0.85329349  0.87332370  0.37195975
  0.76359768  0.19829251  0.28013854
  0.43183504  0.27828927  0.18807748
  0.16839677  0.51837876  0.18651956
  0.09562274  0.61480550  0.37755460
  0.42307913  0.27664789  0.46301038
  0.02134401  0.20712021  0.27994071
  0.60168503  0.12345510  0.09532779
  0.75955761  0.70397719  0.28288385
  0.60439017  0.86641881  0.37488724
  0.50832459  0.69703939  0.28249939
  0.60511458  0.62633548  0.09468193
  0.60356534  0.12365107  0.37491001
  0.84377682  0.86703614  0.09334830
  0.09289663  0.86695915  0.37530663
  0.84479246  0.11824338  0.37499448
  0.42550934  0.52425418  0.46728617
  0.85564808  0.37271564  0.09380750
Direct configuration=     3
  0.93300842  0.03540458  0.18702892
  0.93422581  0.78457523  0.46809000
  0.92917177  0.03159458  0.46817940
  0.84102530  0.11779868  0.09345992
  0.67872478  0.28537227  0.46618002
  0.34430746  0.11549093  0.09477518
  0.93255862  0.28223835  0.46883368
  0.10764663  0.11597823  0.37380374
  0.43999951  0.04039808  0.18985475
  0.10418796  0.37144603  0.37487602
  0.34280188  0.86856528  0.37301724
  0.59778252  0.61450094  0.37758122
  0.34629138  0.61566042  0.09431243
  0.51113245  0.44727679  0.28330097
  0.67664962  0.52173737  0.18562719
  0.42755634  0.53288925  0.19234824
  0.84600501  0.61396549  0.37544898
  0.02055141  0.45176636  0.27899535
  0.34958585  0.86415956  0.09361907
  0.43075937  0.03524719  0.46728135
  0.93591502  0.53248390  0.47052405
  0.76848943  0.95115950  0.28136785
  0.02237972  0.70601374  0.28321034
  0.34913822  0.36773241  0.09568982
  0.93307916  0.78265223  0.18594076
  0.84621151  0.61292756  0.09177382
  0.18735473  0.77554181  0.18753438
  0.51297893  0.94413548  0.28114268
  0.76284899  0.44425118  0.28297846
  0.18432054  0.28664196  0.46803809
  0.09430783  0.36339053  0.09731050
  0.09520374  0.86713946  0.09470589
  0.68116031  0.03460415  0.46623715
  0.17352723  0.78170769  0.46567904
  0.67843465  0.78712210  0.18694270
  0.18054271  0.28375090  0.18654460
  0.18711936  0.03150154  0.46616067
  0.93188884  0.52145487  0.18709702
  0.42058110  0.77857858  0.46817085
  0.35793147  0.12521154  0.37312822
  0.60158620  0.86302205  0.09698665
  0.35463487  0.61707422  0.37306138
  0.17990642  0.53172807  0.47027161
  0.51374903  0.19600117  0.28356463
  0.09415491  0.11111849  0.09534098
  0.59232157  0.36059532  0.37546407
  0.35692634  0.37149697  0.37533482
  0.26236085  0.95722744  0.28113034
  0.02053350  0.95362337  0.28167244
  0.67981304  0.53070856  0.46805703
  0.84474375  0.36095113  0.37441631
  0.27066396  0.69502579  0.28103461
  0.27313968  0.20338593  0.28039465
  0.44686639  0.78642370  0.18922785
  0.69025987  0.28103529  0.18374033
  0.18628202  0.03817026  0.18744803
  0.68083757  0.77577599  0.46850495
  0.93016373  0.28759311  0.18609696
  0.60872370  0.35791273  0.09309195
  0.09034483  0.60304829  0.09745930
  0.68038046  0.03073797  0.18640674
  0.26798140  0.45777207  0.28401458
  0.85245570  0.87278177  0.37208053
  0.76365915  0.19863443  0.27990717
  0.43183504  0.27828927  0.18807748
  0.16839677  0.51837876  0.18651956
  0.09695169  0.61487281  0.37751790
  0.42317482  0.27812695  0.46273623
  0.02265738  0.20673343  0.27976872
  0.60168503  0.12345510  0.09532779
  0.76104426  0.70469780  0.28249187
  0.60418313  0.86623889  0.37590368
  0.50765040  0.69698312  0.28242786
  0.60511458  0.62633548  0.09468193
  0.60430865  0.12396311  0.37435964
  0.84377682  0.86703614  0.09334830
  0.09400223  0.86774355  0.37493350
  0.84420019  0.11806112  0.37481477
  0.42547224  0.52506660  0.46697229
  0.85564808  0.37271564  0.09380750
Direct configuration=     4
  0.93300842  0.03540458  0.18702892
  0.93246079  0.78550931  0.46951528
  0.92830169  0.03073216  0.46884965
  0.84102530  0.11779868  0.09345992
  0.67641509  0.28518591  0.46717304
  0.34430746  0.11549093  0.09477518
  0.93274591  0.28079579  0.46998600
  0.10756674  0.11664527  0.37219157
  0.43999951  0.04039808  0.18985475
  0.10532710  0.37271468  0.37398209
  0.34201514  0.86523740  0.37249041
  0.59703702  0.61876138  0.37809302
  0.34629138  0.61566042  0.09431243
  0.50921251  0.44488374  0.28330585
  0.67664962  0.52173737  0.18562719
  0.42755634  0.53288925  0.19234824
  0.84821782  0.61402633  0.37455344
  0.01980176  0.44990594  0.27951967
  0.34958585  0.86415956  0.09361907
  0.42957623  0.03292553  0.46902414
  0.93732371  0.53465806  0.47186365
  0.76916536  0.95193322  0.28156178
  0.02264939  0.70724336  0.28326546
  0.34913822  0.36773241  0.09568982
  0.93307916  0.78265223  0.18594076
  0.84621151  0.61292756  0.09177382
  0.18735473  0.77554181  0.18753438
  0.51382995  0.94545039  0.28162829
  0.76331945  0.44239834  0.28246560
  0.18739656  0.28721694  0.46849612
  0.09430783  0.36339053  0.09731050
  0.09520374  0.86713946  0.09470589
  0.67994582  0.03151108  0.46556874
  0.17674148  0.78173488  0.46554293
  0.67843465  0.78712210  0.18694270
  0.18054271  0.28375090  0.18654460
  0.18631965  0.03238410  0.46627600
  0.93188884  0.52145487  0.18709702
  0.42190098  0.77742281  0.46739825
  0.35758709  0.12556763  0.37225381
  0.60158620  0.86302205  0.09698665
  0.35360137  0.61824875  0.37336139
  0.18398485  0.53418299  0.46976167
  0.51315393  0.19584786  0.28357196
  0.09415491  0.11111849  0.09534098
  0.59163393  0.35881979  0.37589650
  0.35444425  0.36911363  0.37579851
  0.26236093  0.95941115  0.28102195
  0.02257537  0.95531705  0.28156529
  0.67671809  0.53032142  0.46832050
  0.84396479  0.35870970  0.37375575
  0.27174903  0.69481225  0.28106376
  0.26978664  0.20053430  0.28002392
  0.44686639  0.78642370  0.18922785
  0.69025987  0.28103529  0.18374033
  0.18628202  0.03817026  0.18744803
  0.67911895  0.77617887  0.46785189
  0.93016373  0.28759311  0.18609696
  0.60872370  0.35791273  0.09309195
  0.09034483  0.60304829  0.09745930
  0.68038046  0.03073797  0.18640674
  0.26745653  0.45584397  0.28386215
  0.85142175  0.87205963  0.37231218
  0.76372459  0.19899638  0.27954287
  0.43183504  0.27828927  0.18807748
  0.16839677  0.51837876  0.18651956
  0.09867860  0.61485505  0.37752732
  0.42330142  0.27996110  0.46238756
  0.02449161  0.20623924  0.27946913
  0.60168503  0.12345510  0.09532779
  0.76282529  0.70544427  0.28198075
  0.60387799  0.86622031  0.37731228
  0.50675760  0.69689043  0.28232279
  0.60511458  0.62633548  0.09468193
  0.60515456  0.12442902  0.37376745
  0.84377682  0.86703614  0.09334830
  0.09544089  0.86881977  0.37461483
  0.84358657  0.11799553  0.37466027
  0.42537956  0.52632184  0.46661760
  0.85564808  0.37271564  0.09380750
Direct configuration=     5
  0.93300842  0.03540458  0.18702892
  0.93063054  0.78575423  0.47093732
  0.92762181  0.03019544  0.46945985
  0.84102530  0.11779868  0.09345992
  0.67443741  0.28506185  0.46828402
  0.34430746  0.11549093  0.09477518
  0.93329041  0.28013149  0.47110416
  0.10688743  0.11710683  0.37062191
  0.43999951  0.04039808  0.18985475
  0.10619722  0.37359200  0.37349154
  0.34139307  0.86223028  0.37212622
  0.59638496  0.62240779  0.37822960
  0.34629138  0.61566042  0.09431243
  0.50735172  0.44236610  0.28364597
  0.67664962  0.52173737  0.18562719
  0.42755634  0.53288925  0.19234824
  0.85014698  0.61406871  0.37394123
  0.01902325  0.44811773  0.27994208
  0.34958585  0.86415956  0.09361907
  0.42789378  0.03010137  0.47076523
  0.93873177  0.53666668  0.47331518
  0.76987885  0.95266146  0.28185342
  0.02331912  0.70854439  0.28322522
  0.34913822  0.36773241  0.09568982
  0.93307916  0.78265223  0.18594076
  0.84621151  0.61292756  0.09177382
  0.18735473  0.77554181  0.18753438
  0.51496011  0.94702961  0.28214571
  0.76348459  0.44033238  0.28185670
  0.19066841  0.28775713  0.46892674
  0.09430783  0.36339053  0.09731050
  0.09520374  0.86713946  0.09470589
  0.67844138  0.02799539  0.46477905
  0.18005481  0.78181812  0.46536549
  0.67843465  0.78712210  0.18694270
  0.18054271  0.28375090  0.18654460
  0.18536120  0.03340831  0.46633302
  0.93188884  0.52145487  0.18709702
  0.42387986  0.77605701  0.46645491
  0.35722018  0.12553605  0.37133516
  0.60158620  0.86302205  0.09698665
  0.35221872  0.61947483  0.37363181
  0.18840539  0.53671398  0.46908901
  0.51241545  0.19572825  0.28353480
  0.09415491  0.11111849  0.09534098
  0.59101140  0.35721840  0.37636145
  0.35207698  0.36683715  0.37628345
  0.26245848  0.96200365  0.28089661
  0.02491881  0.95716599  0.28133046
  0.67310920  0.52997006  0.46856038
  0.84289925  0.35585119  0.37321521
  0.27289954  0.69432658  0.28099000
  0.26595734  0.19723312  0.27942494
  0.44686639  0.78642370  0.18922785
  0.69025987  0.28103529  0.18374033
  0.18628202  0.03817026  0.18744803
  0.67715282  0.77710831  0.46724012
  0.93016373  0.28759311  0.18609696
  0.60872370  0.35791273  0.09309195
  0.09034483  0.60304829  0.09745930
  0.68038046  0.03073797  0.18640674
  0.26693590  0.45357944  0.28362619
  0.85036305  0.87123865  0.37269049
  0.76383535  0.19924937  0.27903192
  0.43183504  0.27828927  0.18807748
  0.16839677  0.51837876  0.18651956
  0.10054336  0.61470995  0.37761856
  0.42346873  0.28182120  0.46201950
  0.02667298  0.20568474  0.27901610
  0.60168503  0.12345510  0.09532779
  0.76476531  0.70611477  0.28138645
  0.60345108  0.86653081  0.37895907
  0.50571116  0.69674969  0.28218492
  0.60511458  0.62633548  0.09468193
  0.60586923  0.12499655  0.37326538
  0.84377682  0.86703614  0.09334830
  0.09713204  0.87015064  0.37441439
  0.84312660  0.11814278  0.37459877
  0.42520138  0.52796269  0.46627624
  0.85564808  0.37271564  0.09380750
Direct configuration=     6
  0.93300842  0.03540458  0.18702892
  0.92982607  0.78521630  0.47148247
  0.92752829  0.03030288  0.46963279
  0.84102530  0.11779868  0.09345992
  0.67394393  0.28499564  0.46883693
  0.34430746  0.11549093  0.09477518
  0.93365304  0.28047430  0.47155006
  0.10605924  0.11706591  0.37012342
  0.43999951  0.04039808  0.18985475
  0.10633036  0.37356811  0.37363860
  0.34132922  0.86153278  0.37211662
  0.59620054  0.62321718  0.37788979
  0.34629138  0.61566042  0.09431243
  0.50667310  0.44125424  0.28404032
  0.67664962  0.52173737  0.18562719
  0.42755634  0.53288925  0.19234824
  0.85063176  0.61401506  0.37396754
  0.01875629  0.44751120  0.27999817
  0.34958585  0.86415956  0.09361907
  0.42687221  0.02859376  0.47145016
  0.93922586  0.53721638  0.47395533
  0.77020385  0.95286145  0.28208089
  0.02394978  0.70908994  0.28314288
  0.34913822  0.36773241  0.09568982
  0.93307916  0.78265223  0.18594076
  0.84621151  0.61292756  0.09177382
  0.18735473  0.77554181  0.18753438
  0.51563219  0.94784299  0.28236527
  0.76328637  0.43943814  0.28156992
  0.19210512  0.28791321  0.46908629
  0.09430783  0.36339053  0.09731050
  0.09520374  0.86713946  0.09470589
  0.67767499  0.02649809  0.46440622
  0.18137390  0.78183906  0.46527209
  0.67843465  0.78712210  0.18694270
  0.18054271  0.28375090  0.18654460
  0.18480581  0.03392741  0.46629713
  0.93188884  0.52145487  0.18709702
  0.42534080  0.77538234  0.46595257
  0.35698008  0.12514758  0.37092817
  0.60158620  0.86302205  0.09698665
  0.35140067  0.61992159  0.37367923
  0.19046612  0.53776717  0.46868508
  0.51199386  0.19571688  0.28346532
  0.09415491  0.11111849  0.09534098
  0.59085342  0.35670291  0.37658246
  0.35126776  0.36605286  0.37649279
  0.26263826  0.96332409  0.28083865
  0.02598719  0.95792536  0.28108011
  0.67127025  0.52990044  0.46861472
  0.84224796  0.35421213  0.37315463
  0.27341172  0.69388390  0.28084502
  0.26414314  0.19565382  0.27894430
  0.44686639  0.78642370  0.18922785
  0.69025987  0.28103529  0.18374033
  0.18628202  0.03817026  0.18744803
  0.67623094  0.77797869  0.46709439
  0.93016373  0.28759311  0.18609696
  0.60872370  0.35791273  0.09309195
  0.09034483  0.60304829  0.09745930
  0.68038046  0.03073797  0.18640674
  0.26669117  0.45235943  0.28345845
  0.84997339  0.87079163  0.37299090
  0.76392908  0.19917432  0.27868582
  0.43183504  0.27828927  0.18807748
  0.16839677  0.51837876  0.18651956
  0.10126118  0.61447539  0.37773065
  0.42356869  0.28252281  0.46186268
  0.02782290  0.20544033  0.27868439
  0.60168503  0.12345510  0.09532779
  0.76564904  0.70628094  0.28108879
  0.60314768  0.86701657  0.37973795
  0.50517515  0.69666053  0.28210383
  0.60511458  0.62633548  0.09468193
  0.60598992  0.12532453  0.37316963
  0.84377682  0.86703614  0.09334830
  0.09799808  0.87089859  0.37445592
  0.84313100  0.11844397  0.37466107
  0.42506527  0.52894180  0.46615819
  0.85564808  0.37271564  0.09380750
Direct configuration=     7
  0.93300842  0.03540458  0.18702892
  0.92878201  0.78368055  0.47211969
  0.92768485  0.03086587  0.46973553
  0.84102530  0.11779868  0.09345992
  0.67366577  0.28481878  0.46972579
  0.34430746  0.11549093  0.09477518
  0.93435831  0.28192072  0.47210471
  0.10409444  0.11659280  0.36972303
  0.43999951  0.04039808  0.18985475
  0.10609838  0.37295561  0.37433939
  0.34152381  0.86151611  0.37228733
  0.59611592  0.62334193  0.37684791
  0.34629138  0.61566042  0.09431243
  0.50590999  0.43966810  0.28489935
  0.67664962  0.52173737  0.18562719
  0.42755634  0.53288925  0.19234824
  0.85078938  0.61375208  0.37441760
  0.01857925  0.44688912  0.27994407
  0.34958585  0.86415956  0.09361907
  0.42515019  0.02619819  0.47231675
  0.93986149  0.53748046  0.47487574
  0.77070874  0.95291870  0.28258492
  0.02533864  0.70975834  0.28300267
  0.34913822  0.36773241  0.09568982
  0.93307916  0.78265223  0.18594076
  0.84621151  0.61292756  0.09177382
  0.18735473  0.77554181  0.18753438
  0.51679646  0.94912874  0.28266251
  0.76264780  0.43828437  0.28121160
  0.19409500  0.28795276  0.46927218
  0.09430783  0.36339053  0.09731050
  0.09520374  0.86713946  0.09470589
  0.67647039  0.02457515  0.46387512
  0.18288893  0.78177554  0.46512389
  0.67843465  0.78712210  0.18694270
  0.18054271  0.28375090  0.18654460
  0.18377478  0.03472503  0.46615622
  0.93188884  0.52145487  0.18709702
  0.42842265  0.77436418  0.46512850
  0.35645066  0.12401195  0.37033934
  0.60158620  0.86302205  0.09698665
  0.34994568  0.62034191  0.37356740
  0.19354225  0.53921091  0.46795918
  0.51127882  0.19573788  0.28327840
  0.09415491  0.11111849  0.09534098
  0.59084330  0.35625116  0.37693947
  0.35044112  0.36522598  0.37680718
  0.26312015  0.96542214  0.28075448
  0.02749324  0.95883135  0.28047454
  0.66823089  0.52987639  0.46859396
  0.84105289  0.35129932  0.37336700
  0.27415088  0.69291994  0.28045443
  0.26136772  0.19324206  0.27790325
  0.44686639  0.78642370  0.18922785
  0.69025987  0.28103529  0.18374033
  0.18628202  0.03817026  0.18744803
  0.67479652  0.77989116  0.46702547
  0.93016373  0.28759311  0.18609696
  0.60872370  0.35791273  0.09309195
  0.09034483  0.60304829  0.09745930
  0.68038046  0.03073797  0.18640674
  0.26622733  0.45022623  0.28315756
  0.84955449  0.86999445  0.37364006
  0.76415499  0.19875721  0.27798882
  0.43183504  0.27828927  0.18807748
  0.16839677  0.51837876  0.18651956
  0.10206988  0.61386990  0.37799994
  0.42378013  0.28332120  0.46164502
  0.02975643  0.20513574  0.27800988
  0.60168503  0.12345510  0.09532779
  0.76696318  0.70628393  0.28061827
  0.60254094  0.86811564  0.38087765
  0.50432924  0.69650249  0.28195639
  0.60511458  0.62633548  0.09468193
  0.60582260  0.12594836  0.37324998
  0.84377682  0.86703614  0.09334830
  0.09935011  0.87215942  0.37473601
  0.84344406  0.11925208  0.37488862
  0.42484200  0.53079000  0.46601663
  0.85564808  0.37271564  0.09380750
Direct configuration=     8
  0.93300842  0.03540458  0.18702892
  0.92861059  0.78255567  0.47215224
  0.92802956  0.03142961  0.46961230
  0.84102530  0.11779868  0.09345992
  0.67398056  0.28469226  0.47009627
  0.34430746  0.11549093  0.09477518
  0.93479200  0.28328162  0.47218710
  0.10268385  0.11595998  0.36992430
  0.43999951  0.04039808  0.18985475
  0.10554005  0.37219046  0.37499804
  0.34187241  0.86259760  0.37251130
  0.59631839  0.62247946  0.37600453
  0.34629138  0.61566042  0.09431243
  0.50582814  0.43919661  0.28539682
  0.67664962  0.52173737  0.18562719
  0.42755634  0.53288925  0.19234824
  0.85031826  0.61345846  0.37497283
  0.01878980  0.44692599  0.27985500
  0.34958585  0.86415956  0.09361907
  0.42442589  0.02533908  0.47243378
  0.93998353  0.53700615  0.47516433
  0.77094966  0.95265456  0.28293742
  0.02622511  0.70977138  0.28301993
  0.34913822  0.36773241  0.09568982
  0.93307916  0.78265223  0.18594076
  0.84621151  0.61292756  0.09177382
  0.18735473  0.77554181  0.18753438
  0.51730836  0.94958412  0.28273933
  0.76216047  0.43811564  0.28121295
  0.19457147  0.28774277  0.46928565
  0.09430783  0.36339053  0.09731050
  0.09520374  0.86713946  0.09470589
  0.67609807  0.02446163  0.46379123
  0.18282328  0.78158230  0.46507176
  0.67843465  0.78712210  0.18694270
  0.18054271  0.28375090  0.18654460
  0.18319308  0.03498940  0.46601048
  0.93188884  0.52145487  0.18709702
  0.43031107  0.77402331  0.46479523
  0.35605434  0.12304904  0.37017088
  0.60158620  0.86302205  0.09698665
  0.34927339  0.62019657  0.37330033
  0.19454676  0.53959078  0.46760214
  0.51095184  0.19575645  0.28312276
  0.09415491  0.11111849  0.09534098
  0.59108421  0.35640994  0.37710955
  0.35053064  0.36527986  0.37692595
  0.26351361  0.96618134  0.28072393
  0.02786477  0.95883873  0.28003315
  0.66686581  0.52989291  0.46847421
  0.84042143  0.34990650  0.37375310
  0.27439779  0.69231103  0.28013289
  0.26041680  0.19242278  0.27720637
  0.44686639  0.78642370  0.18922785
  0.69025987  0.28103529  0.18374033
  0.18628202  0.03817026  0.18744803
  0.67435096  0.78109464  0.46710976
  0.93016373  0.28759311  0.18609696
  0.60872370  0.35791273  0.09309195
  0.09034483  0.60304829  0.09745930
  0.68038046  0.03073797  0.18640674
  0.26589419  0.44912539  0.28303096
  0.84958664  0.86955215  0.37408443
  0.76435702  0.19830402  0.27755010
  0.43183504  0.27828927  0.18807748
  0.16839677  0.51837876  0.18651956
  0.10203231  0.61342832  0.37818810
  0.42399667  0.28330652  0.46160036
  0.03059642  0.20510917  0.27760076
  0.60168503  0.12345510  0.09532779
  0.76741970  0.70599340  0.28044027
  0.60214630  0.86867678  0.38113058
  0.50402728  0.69644478  0.28187260
  0.60511458  0.62633548  0.09468193
  0.60531484  0.12626876  0.37352798
  0.84377682  0.86703614  0.09334830
  0.09982202  0.87269318  0.37505746
  0.84385222  0.11987375  0.37512388
  0.42480451  0.53183173  0.46598414
  0.85564808  0.37271564  0.09380750
Direct configuration=     9
  0.93300842  0.03540458  0.18702892
  0.92882412  0.78176648  0.47190413
  0.92844291  0.03195340  0.46941027
  0.84102530  0.11779868  0.09345992
  0.67447625  0.28453043  0.47027327
  0.34430746  0.11549093  0.09477518
  0.93514566  0.28447806  0.47210227
  0.10149367  0.11516208  0.37034297
  0.43999951  0.04039808  0.18985475
  0.10479836  0.37137537  0.37559092
  0.34229102  0.86420605  0.37273684
  0.59671335  0.62138305  0.37526922
  0.34629138  0.61566042  0.09431243
  0.50594764  0.43915144  0.28564045
  0.67664962  0.52173737  0.18562719
  0.42755634  0.53288925  0.19234824
  0.84960946  0.61307625  0.37558055
  0.01920890  0.44719626  0.27982191
  0.34958585  0.86415956  0.09361907
  0.42418422  0.02524655  0.47220409
  0.93990612  0.53620561  0.47518588
  0.77114441  0.95217505  0.28327094
  0.02689481  0.70941776  0.28321308
  0.34913822  0.36773241  0.09568982
  0.93307916  0.78265223  0.18594076
  0.84621151  0.61292756  0.09177382
  0.18735473  0.77554181  0.18753438
  0.51749877  0.94962657  0.28272782
  0.76185747  0.43844456  0.28146059
  0.19435110  0.28738283  0.46923003
  0.09430783  0.36339053  0.09731050
  0.09520374  0.86713946  0.09470589
  0.67618097  0.02541242  0.46395541
  0.18190873  0.78123200  0.46506287
  0.67843465  0.78712210  0.18694270
  0.18054271  0.28375090  0.18654460
  0.18277272  0.03499408  0.46585298
  0.93188884  0.52145487  0.18709702
  0.43176039  0.77399495  0.46468280
  0.35561975  0.12213061  0.37019311
  0.60158620  0.86302205  0.09698665
  0.34895806  0.61976655  0.37287346
  0.19463967  0.53954085  0.46740762
  0.51079804  0.19576056  0.28296239
  0.09415491  0.11111849  0.09534098
  0.59146054  0.35683152  0.37723920
  0.35101240  0.36571817  0.37698491
  0.26391119  0.96626591  0.28071061
  0.02771093  0.95837621  0.27964066
  0.66612744  0.52989023  0.46828951
  0.84001039  0.34924117  0.37425302
  0.27448462  0.69186557  0.27980940
  0.26027184  0.19234588  0.27661441
  0.44686639  0.78642370  0.18922785
  0.69025987  0.28103529  0.18374033
  0.18628202  0.03817026  0.18744803
  0.67443118  0.78199519  0.46720798
  0.93016373  0.28759311  0.18609696
  0.60872370  0.35791273  0.09309195
  0.09034483  0.60304829  0.09745930
  0.68038046  0.03073797  0.18640674
  0.26551200  0.44833657  0.28301445
  0.84979481  0.86915164  0.37448713
  0.76461360  0.19781156  0.27717510
  0.43183504  0.27828927  0.18807748
  0.16839677  0.51837876  0.18651956
  0.10157296  0.61305393  0.37835498
  0.42427220  0.28286564  0.46163342
  0.03097604  0.20522142  0.27729515
  0.60168503  0.12345510  0.09532779
  0.76753434  0.70548290  0.28039410
  0.60183914  0.86887715  0.38090431
  0.50399150  0.69644585  0.28179548
  0.60511458  0.62633548  0.09468193
  0.60448826  0.12643830  0.37394107
  0.84377682  0.86703614  0.09334830
  0.09982326  0.87283303  0.37543604
  0.84429834  0.12040030  0.37538684
  0.42491786  0.53261849  0.46597690
  0.85564808  0.37271564  0.09380750
Direct configuration=    10
  0.93300842  0.03540458  0.18702892
  0.92898097  0.78169743  0.47176210
  0.92860559  0.03212557  0.46934386
  0.84102530  0.11779868  0.09345992
  0.67457729  0.28436999  0.47038522
  0.34430746  0.11549093  0.09477518
  0.93537444  0.28483488  0.47210222
  0.10098181  0.11467332  0.37048225
  0.43999951  0.04039808  0.18985475
  0.10437866  0.37101717  0.37577138
  0.34246533  0.86501179  0.37279772
  0.59696704  0.62117708  0.37500728
  0.34629138  0.61566042  0.09431243
  0.50586788  0.43905468  0.28556381
  0.67664962  0.52173737  0.18562719
  0.42755634  0.53288925  0.19234824
  0.84935436  0.61275822  0.37585340
  0.01947846  0.44725457  0.27991865
  0.34958585  0.86415956  0.09361907
  0.42420765  0.02546367  0.47204429
  0.93987454  0.53578703  0.47518233
  0.77132418  0.95182287  0.28349073
  0.02717848  0.70910459  0.28347384
  0.34913822  0.36773241  0.09568982
  0.93307916  0.78265223  0.18594076
  0.84621151  0.61292756  0.09177382
  0.18735473  0.77554181  0.18753438
  0.51751133  0.94953420  0.28272046
  0.76190323  0.43874063  0.28172713
  0.19414121  0.28714486  0.46920463
  0.09430783  0.36339053  0.09731050
  0.09520374  0.86713946  0.09470589
  0.67640587  0.02633063  0.46412607
  0.18116629  0.78093050  0.46506470
  0.67843465  0.78712210  0.18694270
  0.18054271  0.28375090  0.18654460
  0.18255972  0.03492328  0.46577224
  0.93188884  0.52145487  0.18709702
  0.43254195  0.77407003  0.46465554
  0.35525891  0.12168365  0.37022967
  0.60158620  0.86302205  0.09698665
  0.34887953  0.61946566  0.37252687
  0.19458205  0.53952479  0.46733503
  0.51076710  0.19574494  0.28286685
  0.09415491  0.11111849  0.09534098
  0.59167290  0.35701454  0.37735217
  0.35126163  0.36596184  0.37704888
  0.26414550  0.96611958  0.28069821
  0.02753722  0.95798008  0.27943772
  0.66569426  0.52980761  0.46816756
  0.83978694  0.34907099  0.37455236
  0.27458369  0.69170164  0.27961217
  0.26031066  0.19241875  0.27629822
  0.44686639  0.78642370  0.18922785
  0.69025987  0.28103529  0.18374033
  0.18628202  0.03817026  0.18744803
  0.67463287  0.78238174  0.46715792
  0.93016373  0.28759311  0.18609696
  0.60872370  0.35791273  0.09309195
  0.09034483  0.60304829  0.09745930
  0.68038046  0.03073797  0.18640674
  0.26517537  0.44780868  0.28307521
  0.84987725  0.86881088  0.37472988
  0.76482935  0.19754728  0.27694272
  0.43183504  0.27828927  0.18807748
  0.16839677  0.51837876  0.18651956
  0.10123817  0.61288113  0.37845088
  0.42447361  0.28251261  0.46165981
  0.03110523  0.20531051  0.27716006
  0.60168503  0.12345510  0.09532779
  0.76760020  0.70508551  0.28039397
  0.60170322  0.86877849  0.38063248
  0.50406324  0.69647534  0.28173223
  0.60511458  0.62633548  0.09468193
  0.60387176  0.12650315  0.37421202
  0.84377682  0.86703614  0.09334830
  0.09964647  0.87273277  0.37566803
  0.84447258  0.12063411  0.37553934