       N       E                     dE             d eps       ncg     rms          rms(c)
DAV:   1     0.674986892810E+04    0.67499E+04   -0.31262E+05  2096   0.144E+03
DAV:   2     0.381121794986E+03   -0.63687E+04   -0.58219E+04  2096   0.353E+02
DAV:   3    -0.478401504705E+03   -0.85952E+03   -0.70083E+03  2276   0.155E+02
DAV:   4    -0.548771693467E+03   -0.70370E+02   -0.66639E+02  2336   0.458E+01
DAV:   5    -0.550562890553E+03   -0.17912E+01   -0.17836E+01  2384   0.764E+00    0.102E+02
RMM:   6    -0.762842907865E+03   -0.21228E+03   -0.96246E+02  2106   0.703E+01    0.195E+02
RMM:   7    -0.614860556719E+03    0.14798E+03   -0.23319E+02  2100   0.335E+01    0.145E+02
RMM:   8    -0.654708753647E+03   -0.39848E+02   -0.10829E+02  2099   0.208E+01    0.172E+02
RMM:   9    -0.583956399578E+03    0.70752E+02   -0.11895E+02  2103   0.226E+01    0.152E+02
RMM:  10    -0.516091514642E+03    0.67865E+02   -0.15064E+02  2098   0.264E+01    0.109E+02
RMM:  11    -0.499079984824E+03    0.17012E+02   -0.12676E+02  2100   0.237E+01    0.121E+02
RMM:  12    -0.478989813577E+03    0.20090E+02   -0.99867E+01  2103   0.225E+01    0.103E+02
RMM:  13    -0.451670849566E+03    0.27319E+02   -0.54869E+01  2101   0.167E+01    0.834E+01
RMM:  14    -0.439160416130E+03    0.12510E+02   -0.29252E+01  2103   0.118E+01    0.724E+01
RMM:  15    -0.435494747899E+03    0.36657E+01   -0.23780E+01  2101   0.106E+01    0.605E+01
RMM:  16    -0.437833279151E+03   -0.23385E+01   -0.13226E+01  2102   0.791E+00    0.557E+01
RMM:  17    -0.436251026730E+03    0.15823E+01   -0.85469E+00  2100   0.614E+00    0.442E+01
RMM:  18    -0.436502129193E+03   -0.25110E+00   -0.49232E+00  2102   0.453E+00    0.376E+01
RMM:  19    -0.441111079337E+03   -0.46090E+01   -0.42278E+00  2101   0.417E+00    0.344E+01
RMM:  20    -0.449437986093E+03   -0.83269E+01   -0.44967E+00  2103   0.418E+00    0.365E+01
RMM:  21    -0.456443902471E+03   -0.70059E+01   -0.44706E+00  2101   0.405E+00    0.385E+01
RMM:  22    -0.461858810404E+03   -0.54149E+01   -0.50227E+00  2100   0.424E+00    0.347E+01
RMM:  23    -0.468438345522E+03   -0.65795E+01   -0.65967E+00  2100   0.472E+00    0.290E+01
RMM:  24    -0.473652920218E+03   -0.52146E+01   -0.43124E+00  2100   0.375E+00    0.267E+01
RMM:  25    -0.479145394848E+03   -0.54925E+01   -0.43696E+00  2099   0.347E+00    0.245E+01
RMM:  26    -0.480376695816E+03   -0.12313E+01   -0.18246E+00  2101   0.243E+00    0.180E+01
RMM:  27    -0.484956696983E+03   -0.45800E+01   -0.26669E+00  2099   0.269E+00    0.233E+01
RMM:  28    -0.485699777469E+03   -0.74308E+00   -0.11144E+00  2100   0.190E+00    0.171E+01
RMM:  29    -0.488234160727E+03   -0.25344E+01   -0.14115E+00  2099   0.189E+00    0.190E+01
RMM:  30    -0.490850402324E+03   -0.26162E+01   -0.22096E+00  2100   0.229E+00    0.173E+01
RMM:  31    -0.492224872147E+03   -0.13745E+01   -0.16940E+00  2099   0.212E+00    0.154E+01
RMM:  32    -0.492933121359E+03   -0.70825E+00   -0.14449E+00  2099   0.199E+00    0.136E+01
RMM:  33    -0.493320763918E+03   -0.38764E+00   -0.36717E-01  2102   0.111E+00    0.120E+01
RMM:  34    -0.493467262625E+03   -0.14650E+00   -0.17413E-01  2100   0.798E-01    0.121E+01
RMM:  35    -0.493579350263E+03   -0.11209E+00   -0.48731E-02  2100   0.423E-01    0.111E+01
RMM:  36    -0.493904293350E+03   -0.32494E+00   -0.10444E-01  2099   0.549E-01    0.111E+01
RMM:  37    -0.494084523067E+03   -0.18023E+00   -0.11561E-01  2099   0.631E-01    0.980E+00
RMM:  38    -0.494654894557E+03   -0.57037E+00   -0.27081E-01  2099   0.845E-01    0.931E+00
RMM:  39    -0.494812623418E+03   -0.15773E+00   -0.17428E-01  2099   0.765E-01    0.709E+00
RMM:  40    -0.495108244682E+03   -0.29562E+00   -0.12332E-01  2099   0.581E-01    0.674E+00
RMM:  41    -0.495254416295E+03   -0.14617E+00   -0.96443E-02  2100   0.575E-01    0.647E+00
RMM:  42    -0.495541054767E+03   -0.28664E+00   -0.12122E-01  2099   0.580E-01    0.614E+00
RMM:  43    -0.495747090132E+03   -0.20604E+00   -0.12961E-01  2099   0.644E-01    0.575E+00
RMM:  44    -0.495920687978E+03   -0.17360E+00   -0.97598E-02  2099   0.537E-01    0.467E+00
RMM:  45    -0.496014210363E+03   -0.93522E-01   -0.50319E-02  2100   0.416E-01    0.391E+00
RMM:  46    -0.496098055832E+03   -0.83845E-01   -0.22763E-02  2100   0.272E-01    0.372E+00
RMM:  47    -0.496123573886E+03   -0.25518E-01   -0.15939E-02  2100   0.252E-01    0.318E+00
RMM:  48    -0.496164690501E+03   -0.41117E-01   -0.14327E-02  2100   0.228E-01    0.271E+00
RMM:  49    -0.496209149275E+03   -0.44459E-01   -0.17074E-02  2100   0.259E-01    0.248E+00
RMM:  50    -0.496284106713E+03   -0.74957E-01   -0.19467E-02  2100   0.268E-01    0.230E+00
RMM:  51    -0.496240205748E+03    0.43901E-01   -0.52546E-02  2100   0.442E-01    0.264E+00
RMM:  52    -0.496329106510E+03   -0.88901E-01   -0.23849E-02  2100   0.298E-01    0.259E+00
RMM:  53    -0.496352643700E+03   -0.23537E-01   -0.16361E-02  2100   0.253E-01    0.221E+00
RMM:  54    -0.496365048866E+03   -0.12405E-01   -0.84136E-03  2100   0.182E-01    0.204E+00
RMM:  55    -0.496370854839E+03   -0.58060E-02   -0.79837E-03  2100   0.179E-01    0.170E+00
RMM:  56    -0.496373215442E+03   -0.23606E-02   -0.12737E-02  2100   0.218E-01    0.203E+00
RMM:  57    -0.496370554289E+03    0.26612E-02   -0.75570E-03  2100   0.172E-01    0.128E+00
RMM:  58    -0.496370806281E+03   -0.25199E-03   -0.55344E-03  2100   0.142E-01    0.112E+00
RMM:  59    -0.496368805336E+03    0.20009E-02   -0.33716E-03  2100   0.111E-01    0.946E-01
RMM:  60    -0.496365679570E+03    0.31258E-02   -0.22428E-03  2100   0.931E-02    0.798E-01
RMM:  61    -0.496362719473E+03    0.29601E-02   -0.43583E-03  2100   0.130E-01    0.146E+00
RMM:  62    -0.496365834083E+03   -0.31146E-02   -0.18721E-03  2100   0.887E-02    0.958E-01
RMM:  63    -0.496367543716E+03   -0.17096E-02   -0.12505E-03  2100   0.728E-02    0.813E-01
RMM:  64    -0.496367150479E+03    0.39324E-03   -0.12538E-03  2100   0.698E-02    0.711E-01
RMM:  65    -0.496367601007E+03   -0.45053E-03   -0.84786E-04  2100   0.574E-02    0.607E-01
RMM:  66    -0.496371850350E+03   -0.42493E-02   -0.11709E-03  2100   0.667E-02    0.702E-01
RMM:  67    -0.496372530245E+03   -0.67989E-03   -0.62280E-04  2100   0.512E-02    0.403E-01
RMM:  68    -0.496377199869E+03   -0.46696E-02   -0.41077E-04  2100   0.389E-02    0.300E-01
RMM:  69    -0.496381931791E+03   -0.47319E-02   -0.66453E-04  2100   0.464E-02    0.341E-01
RMM:  70    -0.496383825145E+03   -0.18934E-02   -0.41863E-04  2100   0.390E-02    0.352E-01
RMM:  71    -0.496387195244E+03   -0.33701E-02   -0.53228E-04  2100   0.439E-02    0.353E-01
RMM:  72    -0.496391816020E+03   -0.46208E-02   -0.43949E-04  2100   0.374E-02    0.260E-01
RMM:  73    -0.496394979147E+03   -0.31631E-02   -0.31034E-04  2100   0.307E-02    0.170E-01
RMM:  74    -0.496397429613E+03   -0.24505E-02   -0.16264E-04  2100   0.226E-02    0.122E-01
RMM:  75    -0.496400646597E+03   -0.32170E-02   -0.10310E-04  2100   0.173E-02    0.120E-01
RMM:  76    -0.496404909405E+03   -0.42628E-02   -0.11736E-04  2099   0.176E-02    0.143E-01
RMM:  77    -0.496406542168E+03   -0.16328E-02   -0.58778E-05  2096   0.140E-02    0.688E-02
RMM:  78    -0.496408639331E+03   -0.20972E-02   -0.34597E-05  2094   0.926E-03    0.558E-02
RMM:  79    -0.496411153019E+03   -0.25137E-02   -0.30248E-05  2073   0.771E-03    0.421E-02
RMM:  80    -0.496413253849E+03   -0.21008E-02   -0.22999E-05  1977   0.668E-03    0.349E-02
RMM:  81    -0.496414623537E+03   -0.13697E-02   -0.12616E-05  1894   0.568E-03    0.375E-02
RMM:  82    -0.496416744849E+03   -0.21213E-02   -0.20334E-05  1902   0.585E-03    0.328E-02
RMM:  83    -0.496418511935E+03   -0.17671E-02   -0.18119E-05  1852   0.496E-03    0.277E-02
RMM:  84    -0.496420194140E+03   -0.16822E-02   -0.18779E-05  1869   0.470E-03    0.236E-02
RMM:  85    -0.496421823030E+03   -0.16289E-02   -0.20154E-05  1830   0.450E-03    0.238E-02
RMM:  86    -0.496422736868E+03   -0.91384E-03   -0.10907E-05  1834   0.468E-03    0.325E-02
RMM:  87    -0.496423959132E+03   -0.12223E-02   -0.18587E-05  1816   0.473E-03    0.153E-02
RMM:  88    -0.496424559898E+03   -0.60077E-03   -0.76878E-06  1555   0.300E-03    0.144E-02
RMM:  89    -0.496425004177E+03   -0.44428E-03   -0.59785E-06  1529   0.252E-03    0.109E-02
RMM:  90    -0.496425219040E+03   -0.21486E-03   -0.28801E-06  1442   0.202E-03    0.903E-03
RMM:  91    -0.496425351695E+03   -0.13266E-03   -0.18091E-06  1398   0.177E-03    0.101E-02
RMM:  92    -0.496425404378E+03   -0.52683E-04   -0.67794E-07  1298   0.144E-03    0.630E-03
RMM:  93    -0.496425451064E+03   -0.46686E-04   -0.55832E-07  1298   0.104E-03    0.459E-03
RMM:  94    -0.496425462332E+03   -0.11268E-04   -0.33800E-07  1180   0.896E-04    0.380E-03
RMM:  95    -0.496425466743E+03   -0.44107E-05   -0.17868E-07  1119   0.697E-04    0.319E-03
RMM:  96    -0.496425469879E+03   -0.31358E-05   -0.12884E-07  1055   0.577E-04    0.260E-03
RMM:  97    -0.496425471752E+03   -0.18731E-05   -0.92406E-08   977   0.482E-04    0.165E-03
RMM:  98    -0.496425474063E+03   -0.23112E-05   -0.58208E-08   882   0.399E-04    0.150E-03
RMM:  99    -0.496425475353E+03   -0.12902E-05   -0.47890E-08   797   0.354E-04    0.118E-03
RMM: 100    -0.496425476724E+03   -0.13703E-05   -0.48049E-08   692   0.329E-04    0.111E-03
RMM: 101    -0.496425477959E+03   -0.12353E-05   -0.18975E-08   591   0.298E-04    0.971E-04
RMM: 102    -0.496425479512E+03   -0.15526E-05   -0.55335E-08   697   0.315E-04    0.885E-04
RMM: 103    -0.496425480264E+03   -0.75259E-06   -0.23908E-08   551   0.283E-04
   1 F= -.53141692E+03 E0= -.53141337E+03  d E =-.531417E+03  mag=    95.4032
       N       E                     dE             d eps       ncg     rms          rms(c)
DAV:   1    -0.493810694743E+03    0.26148E+01   -0.17647E+03  2096   0.508E+01    0.173E+01
RMM:   2    -0.507177779344E+03   -0.13367E+02   -0.56776E+01  2100   0.183E+01    0.497E+01
RMM:   3    -0.504408529427E+03    0.27692E+01   -0.19538E+01  2219   0.883E+00    0.352E+01
RMM:   4    -0.504796571388E+03   -0.38804E+00   -0.46345E+00  2164   0.410E+00    0.347E+01
RMM:   5    -0.501254102321E+03    0.35425E+01   -0.18100E+00  2101   0.265E+00    0.196E+01
RMM:   6    -0.500602870884E+03    0.65123E+00   -0.10254E+00  2100   0.195E+00    0.164E+01
RMM:   7    -0.500310320254E+03    0.29255E+00   -0.77437E-01  2100   0.178E+00    0.124E+01
RMM:   8    -0.500026981481E+03    0.28334E+00   -0.44306E-01  2100   0.136E+00    0.893E+00
RMM:   9    -0.500044170217E+03   -0.17189E-01   -0.26139E-01  2101   0.103E+00    0.811E+00
RMM:  10    -0.499990953376E+03    0.53217E-01   -0.28433E-01  2103   0.106E+00    0.760E+00
RMM:  11    -0.499984453567E+03    0.64998E-02   -0.26861E-01  2100   0.105E+00    0.725E+00
RMM:  12    -0.499984677694E+03   -0.22413E-03   -0.23191E-01  2104   0.947E-01    0.746E+00
RMM:  13    -0.499878705544E+03    0.10597E+00   -0.12670E-01  2100   0.736E-01    0.367E+00
RMM:  14    -0.499870282395E+03    0.84231E-02   -0.67181E-02  2101   0.523E-01    0.341E+00
RMM:  15    -0.499862171577E+03    0.81108E-02   -0.31236E-02  2100   0.357E-01    0.271E+00
RMM:  16    -0.499864128588E+03   -0.19570E-02   -0.22521E-02  2100   0.298E-01    0.280E+00
RMM:  17    -0.499849673466E+03    0.14455E-01   -0.16516E-02  2100   0.265E-01    0.131E+00
RMM:  18    -0.499848221966E+03    0.14515E-02   -0.73158E-03  2100   0.177E-01    0.971E-01
RMM:  19    -0.499848287057E+03   -0.65091E-04   -0.46612E-03  2100   0.136E-01    0.788E-01
RMM:  20    -0.499848004517E+03    0.28254E-03   -0.28970E-03  2100   0.111E-01    0.496E-01
RMM:  21    -0.499849306800E+03   -0.13023E-02   -0.15997E-03  2101   0.785E-02    0.542E-01
RMM:  22    -0.499849352271E+03   -0.45471E-04   -0.97412E-04  2100   0.636E-02    0.301E-01
RMM:  23    -0.499850229744E+03   -0.87747E-03   -0.56790E-04  2100   0.481E-02    0.298E-01
RMM:  24    -0.499850743095E+03   -0.51335E-03   -0.32435E-04  2100   0.373E-02    0.166E-01
RMM:  25    -0.499851302104E+03   -0.55901E-03   -0.17887E-04  2100   0.274E-02    0.161E-01
RMM:  26    -0.499852114949E+03   -0.81285E-03   -0.13527E-04  2099   0.234E-02    0.123E-01
RMM:  27    -0.499852568849E+03   -0.45390E-03   -0.73677E-05  2098   0.179E-02    0.822E-02
RMM:  28    -0.499853132252E+03   -0.56340E-03   -0.43230E-05  2097   0.126E-02    0.720E-02
RMM:  29    -0.499853474061E+03   -0.34181E-03   -0.26849E-05  2096   0.105E-02    0.576E-02
RMM:  30    -0.499853980170E+03   -0.50611E-03   -0.22934E-05  2096   0.880E-03    0.605E-02
RMM:  31    -0.499854360060E+03   -0.37989E-03   -0.18695E-05  2091   0.826E-03    0.525E-02
RMM:  32    -0.499854947350E+03   -0.58729E-03   -0.21179E-05  2096   0.760E-03    0.454E-02
RMM:  33    -0.499855338742E+03   -0.39139E-03   -0.15961E-05  2064   0.720E-03    0.414E-02
RMM:  34    -0.499855714559E+03   -0.37582E-03   -0.11653E-05  1990   0.548E-03    0.348E-02
RMM:  35    -0.499855974491E+03   -0.25993E-03   -0.93957E-06  1873   0.556E-03    0.345E-02
RMM:  36    -0.499856453359E+03   -0.47887E-03   -0.16473E-05  2022   0.557E-03    0.312E-02
RMM:  37    -0.499856630978E+03   -0.17762E-03   -0.73291E-06  1805   0.468E-03    0.235E-02
RMM:  38    -0.499856885624E+03   -0.25465E-03   -0.91798E-06  1872   0.431E-03    0.255E-02
RMM:  39    -0.499856998233E+03   -0.11261E-03   -0.43979E-06  1639   0.367E-03    0.151E-02
RMM:  40    -0.499857135551E+03   -0.13732E-03   -0.53571E-06  1687   0.346E-03    0.196E-02
RMM:  41    -0.499857200913E+03   -0.65362E-04   -0.30452E-06  1486   0.317E-03    0.116E-02
RMM:  42    -0.499857248584E+03   -0.47670E-04   -0.19508E-06  1370   0.240E-03    0.132E-02
RMM:  43    -0.499857271151E+03   -0.22568E-04   -0.11156E-06  1263   0.216E-03    0.659E-03
RMM:  44    -0.499857285800E+03   -0.14649E-04   -0.59269E-07  1230   0.144E-03    0.745E-03
RMM:  45    -0.499857300142E+03   -0.14342E-04   -0.51693E-07  1245   0.136E-03    0.410E-03
RMM:  46    -0.499857306065E+03   -0.59228E-05   -0.21256E-07  1195   0.868E-04    0.386E-03
RMM:  47    -0.499857317362E+03   -0.11298E-04   -0.21142E-07  1200   0.767E-04    0.276E-03
RMM:  48    -0.499857320577E+03   -0.32147E-05   -0.86338E-08  1049   0.628E-04    0.270E-03
RMM:  49    -0.499857325583E+03   -0.50056E-05   -0.58613E-08   972   0.481E-04    0.241E-03
RMM:  50    -0.499857333631E+03   -0.80485E-05   -0.76252E-08   976   0.429E-04    0.230E-03
RMM:  51    -0.499857340748E+03   -0.71170E-05   -0.69928E-08   985   0.416E-04    0.161E-03
RMM:  52    -0.499857344719E+03   -0.39706E-05   -0.42548E-08   924   0.394E-04    0.215E-03
RMM:  53    -0.499857350859E+03   -0.61404E-05   -0.55478E-08   936   0.409E-04    0.169E-03
RMM:  54    -0.499857357835E+03   -0.69757E-05   -0.80398E-08   865   0.357E-04    0.175E-03
RMM:  55    -0.499857363596E+03   -0.57610E-05   -0.78816E-08   872   0.368E-04    0.136E-03
RMM:  56    -0.499857367024E+03   -0.34286E-05   -0.54421E-08   870   0.354E-04    0.115E-03
RMM:  57    -0.499857368865E+03   -0.18404E-05   -0.41900E-08   847   0.338E-04    0.154E-03
RMM:  58    -0.499857369572E+03   -0.70667E-06   -0.18746E-08   687   0.308E-04
   2 F= -.53481343E+03 E0= -.53481428E+03  d E =-.339651E+01  mag=    94.8100
       N       E                     dE             d eps       ncg     rms          rms(c)
DAV:   1    -0.499852906410E+03    0.44625E-02   -0.25047E+00  2144   0.183E+00    0.552E-01
RMM:   2    -0.499867019011E+03   -0.14113E-01   -0.46884E-02  2100   0.501E-01    0.158E+00
RMM:   3    -0.499873042723E+03   -0.60237E-02   -0.15972E-02  2306   0.240E-01    0.213E+00
RMM:   4    -0.499868278261E+03    0.47645E-02   -0.77362E-03  2100   0.174E-01    0.165E+00
RMM:   5    -0.499861965058E+03    0.63132E-02   -0.43386E-03  2100   0.135E-01    0.871E-01
RMM:   6    -0.499860145910E+03    0.18191E-02   -0.12355E-03  2100   0.729E-02    0.272E-01
RMM:   7    -0.499860128221E+03    0.17689E-04   -0.37904E-04  2102   0.393E-02    0.256E-01
RMM:   8    -0.499860133262E+03   -0.50412E-05   -0.32871E-04  2100   0.343E-02    0.301E-01
RMM:   9    -0.499859959740E+03    0.17352E-03   -0.32212E-04  2106   0.355E-02    0.200E-01
RMM:  10    -0.499860189052E+03   -0.22931E-03   -0.45931E-04  2100   0.414E-02    0.343E-01
RMM:  11    -0.499859993755E+03    0.19530E-03   -0.37598E-04  2103   0.383E-02    0.225E-01
RMM:  12    -0.499859886275E+03    0.10748E-03   -0.15796E-04  2100   0.257E-02    0.133E-01
RMM:  13    -0.499859865068E+03    0.21207E-04   -0.61597E-05  2098   0.157E-02    0.988E-02
RMM:  14    -0.499859845952E+03    0.19117E-04   -0.22510E-05  2096   0.959E-03    0.448E-02
RMM:  15    -0.499859848591E+03   -0.26389E-05   -0.97363E-06  1950   0.625E-03    0.426E-02
RMM:  16    -0.499859850843E+03   -0.22525E-05   -0.73000E-06  2047   0.532E-03    0.294E-02
RMM:  17    -0.499859851416E+03   -0.57247E-06   -0.40300E-06  1662   0.411E-03
   3 F= -.53481740E+03 E0= -.53481823E+03  d E =-.340049E+01  mag=    94.7991
       N       E                     dE             d eps       ncg     rms          rms(c)
DAV:   1    -0.498307877569E+03    0.15520E+01   -0.63485E+02  2096   0.315E+01    0.130E+01
RMM:   2    -0.506602821610E+03   -0.82949E+01   -0.19839E+01  2100   0.110E+01    0.399E+01
RMM:   3    -0.506656937101E+03   -0.54115E-01   -0.10411E+01  2120   0.668E+00    0.357E+01
RMM:   4    -0.505542926843E+03    0.11140E+01   -0.29621E+00  2111   0.341E+00    0.347E+01
RMM:   5    -0.501685201584E+03    0.38577E+01   -0.18899E+00  2101   0.278E+00    0.152E+01
RMM:   6    -0.501412849463E+03    0.27235E+00   -0.94960E-01  2100   0.197E+00    0.129E+01
RMM:   7    -0.501176713061E+03    0.23614E+00   -0.43939E-01  2100   0.135E+00    0.870E+00
RMM:   8    -0.501008860246E+03    0.16785E+00   -0.18251E-01  2100   0.882E-01    0.488E+00
RMM:   9    -0.501022200612E+03   -0.13340E-01   -0.84328E-02  2100   0.597E-01    0.476E+00
RMM:  10    -0.500996557539E+03    0.25643E-01   -0.54654E-02  2103   0.473E-01    0.376E+00
RMM:  11    -0.501046021855E+03   -0.49464E-01   -0.81457E-02  2100   0.567E-01    0.597E+00
RMM:  12    -0.501006876998E+03    0.39145E-01   -0.82742E-02  2102   0.561E-01    0.392E+00
RMM:  13    -0.500992295066E+03    0.14582E-01   -0.59523E-02  2101   0.490E-01    0.319E+00
RMM:  14    -0.500979182248E+03    0.13113E-01   -0.30158E-02  2101   0.350E-01    0.204E+00
RMM:  15    -0.500982789708E+03   -0.36075E-02   -0.23329E-02  2100   0.310E-01    0.227E+00
RMM:  16    -0.500977999307E+03    0.47904E-02   -0.12157E-02  2101   0.224E-01    0.156E+00
RMM:  17    -0.500974414972E+03    0.35843E-02   -0.81188E-03  2100   0.187E-01    0.105E+00
RMM:  18    -0.500975110419E+03   -0.69545E-03   -0.44118E-03  2100   0.136E-01    0.943E-01
RMM:  19    -0.500974604969E+03    0.50545E-03   -0.28661E-03  2100   0.110E-01    0.571E-01
RMM:  20    -0.500975211183E+03   -0.60621E-03   -0.17837E-03  2100   0.878E-02    0.483E-01
RMM:  21    -0.500975621281E+03   -0.41010E-03   -0.96394E-04  2100   0.632E-02    0.301E-01
RMM:  22    -0.500975840069E+03   -0.21879E-03   -0.40679E-04  2100   0.415E-02    0.225E-01
RMM:  23    -0.500976313961E+03   -0.47389E-03   -0.21842E-04  2100   0.299E-02    0.208E-01
RMM:  24    -0.500976550219E+03   -0.23626E-03   -0.12831E-04  2099   0.235E-02    0.158E-01
RMM:  25    -0.500977006036E+03   -0.45582E-03   -0.10537E-04  2098   0.203E-02    0.153E-01
RMM:  26    -0.500977317347E+03   -0.31131E-03   -0.79569E-05  2099   0.185E-02    0.795E-02
RMM:  27    -0.500977643728E+03   -0.32638E-03   -0.42881E-05  2097   0.132E-02    0.802E-02
RMM:  28    -0.500977950797E+03   -0.30707E-03   -0.26931E-05  2096   0.106E-02    0.521E-02
RMM:  29    -0.500978146118E+03   -0.19532E-03   -0.13007E-05  1983   0.735E-03    0.420E-02
RMM:  30    -0.500978359567E+03   -0.21345E-03   -0.77344E-06  1885   0.574E-03    0.242E-02
RMM:  31    -0.500978513138E+03   -0.15357E-03   -0.40414E-06  1687   0.423E-03    0.226E-02
RMM:  32    -0.500978692753E+03   -0.17961E-03   -0.27792E-06  1511   0.362E-03    0.163E-02
RMM:  33    -0.500978800201E+03   -0.10745E-03   -0.14836E-06  1294   0.266E-03    0.140E-02
RMM:  34    -0.500978906963E+03   -0.10676E-03   -0.11627E-06  1262   0.230E-03    0.103E-02
RMM:  35    -0.500978997948E+03   -0.90985E-04   -0.89925E-07  1252   0.194E-03    0.107E-02
RMM:  36    -0.500979106852E+03   -0.10890E-03   -0.86397E-07  1296   0.177E-03    0.816E-03
RMM:  37    -0.500979168330E+03   -0.61479E-04   -0.52488E-07  1208   0.141E-03    0.763E-03
RMM:  38    -0.500979280404E+03   -0.11207E-03   -0.85480E-07  1333   0.138E-03    0.595E-03
RMM:  39    -0.500979342281E+03   -0.61877E-04   -0.55189E-07  1238   0.131E-03    0.603E-03
RMM:  40    -0.500979429490E+03   -0.87209E-04   -0.88011E-07  1342   0.120E-03    0.528E-03
RMM:  41    -0.500979469890E+03   -0.40400E-04   -0.45017E-07  1229   0.111E-03    0.451E-03
RMM:  42    -0.500979524361E+03   -0.54471E-04   -0.72382E-07  1317   0.987E-04    0.409E-03
RMM:  43    -0.500979545539E+03   -0.21177E-04   -0.30713E-07  1178   0.917E-04    0.294E-03
RMM:  44    -0.500979572126E+03   -0.26587E-04   -0.46905E-07  1278   0.801E-04    0.355E-03
RMM:  45    -0.500979582385E+03   -0.10259E-04   -0.21541E-07  1177   0.796E-04    0.211E-03
RMM:  46    -0.500979588701E+03   -0.63164E-05   -0.12560E-07  1034   0.520E-04    0.243E-03
RMM:  47    -0.500979590284E+03   -0.15829E-05   -0.55058E-08   984   0.539E-04    0.215E-03
RMM:  48    -0.500979593589E+03   -0.33044E-05   -0.66820E-08   985   0.412E-04    0.166E-03
RMM:  49    -0.500979594156E+03   -0.56723E-06   -0.28066E-08   832   0.367E-04
   4 F= -.53596630E+03 E0= -.53597030E+03  d E =-.114890E+01  mag=    94.4607
       N       E                     dE             d eps       ncg     rms          rms(c)
DAV:   1    -0.500965183638E+03    0.14410E-01   -0.50448E+00  2120   0.273E+00    0.105E+00
RMM:   2    -0.501029303913E+03   -0.64120E-01   -0.93447E-02  2100   0.708E-01    0.388E+00
RMM:   3    -0.501017933170E+03    0.11371E-01   -0.42853E-02  2196   0.411E-01    0.337E+00
RMM:   4    -0.501016453117E+03    0.14801E-02   -0.28306E-02  2100   0.337E-01    0.328E+00
RMM:   5    -0.500987717246E+03    0.28736E-01   -0.15397E-02  2100   0.259E-01    0.129E+00
RMM:   6    -0.500983421714E+03    0.42955E-02   -0.38509E-03  2100   0.131E-01    0.484E-01
RMM:   7    -0.500983272603E+03    0.14911E-03   -0.10649E-03  2101   0.659E-02    0.403E-01
RMM:   8    -0.500983299416E+03   -0.26813E-04   -0.79053E-04  2100   0.566E-02    0.420E-01
RMM:   9    -0.500982820843E+03    0.47857E-03   -0.58979E-04  2099   0.507E-02    0.221E-01
RMM:  10    -0.500983272677E+03   -0.45183E-03   -0.65332E-04  2101   0.504E-02    0.480E-01
RMM:  11    -0.500982946976E+03    0.32570E-03   -0.58814E-04  2102   0.474E-02    0.329E-01
RMM:  12    -0.500982740475E+03    0.20650E-03   -0.30646E-04  2101   0.355E-02    0.165E-01
RMM:  13    -0.500982726739E+03    0.13736E-04   -0.14070E-04  2099   0.238E-02    0.136E-01
RMM:  14    -0.500982685146E+03    0.41593E-04   -0.69570E-05  2097   0.171E-02    0.708E-02
RMM:  15    -0.500982685499E+03   -0.35331E-06   -0.24900E-05  2096   0.104E-02    0.625E-02
RMM:  16    -0.500982681914E+03    0.35852E-05   -0.13372E-05  2082   0.739E-03    0.390E-02
RMM:  17    -0.500982681667E+03    0.24672E-06   -0.57115E-06  1800   0.497E-03
   5 F= -.53597409E+03 E0= -.53597849E+03  d E =-.115669E+01  mag=    94.4435
       N       E                     dE             d eps       ncg     rms          rms(c)
DAV:   1    -0.500706147358E+03    0.27653E+00   -0.20688E+02  2096   0.175E+01    0.623E+00
RMM:   2    -0.502249515159E+03   -0.15434E+01   -0.42485E+00  2100   0.500E+00    0.161E+01
RMM:   3    -0.502669088848E+03   -0.41957E+00   -0.20395E+00  2181   0.289E+00    0.180E+01
RMM:   4    -0.502539126376E+03    0.12996E+00   -0.73053E-01  2105   0.170E+00    0.179E+01
RMM:   5    -0.501478512198E+03    0.10606E+01   -0.40084E-01  2100   0.130E+00    0.539E+00
RMM:   6    -0.501445431011E+03    0.33081E-01   -0.13099E-01  2100   0.742E-01    0.421E+00
RMM:   7    -0.501434703851E+03    0.10727E-01   -0.57203E-02  2100   0.478E-01    0.380E+00
RMM:   8    -0.501407626182E+03    0.27078E-01   -0.35515E-02  2100   0.390E-01    0.216E+00
RMM:   9    -0.501406742554E+03    0.88363E-03   -0.21128E-02  2100   0.297E-01    0.213E+00
RMM:  10    -0.501407570533E+03   -0.82798E-03   -0.22069E-02  2104   0.292E-01    0.240E+00
RMM:  11    -0.501399370897E+03    0.81996E-02   -0.22376E-02  2100   0.297E-01    0.170E+00
RMM:  12    -0.501398289969E+03    0.10809E-02   -0.16752E-02  2103   0.257E-01    0.147E+00
RMM:  13    -0.501394845417E+03    0.34446E-02   -0.95686E-03  2100   0.200E-01    0.109E+00
RMM:  14    -0.501393578514E+03    0.12669E-02   -0.48015E-03  2100   0.142E-01    0.807E-01
RMM:  15    -0.501391953260E+03    0.16253E-02   -0.24615E-03  2100   0.103E-01    0.403E-01
RMM:  16    -0.501391916472E+03    0.36788E-04   -0.90984E-04  2100   0.623E-02    0.335E-01
RMM:  17    -0.501391681161E+03    0.23531E-03   -0.46725E-04  2100   0.450E-02    0.152E-01
RMM:  18    -0.501391820304E+03   -0.13914E-03   -0.24073E-04  2100   0.319E-02    0.182E-01
RMM:  19    -0.501391886734E+03   -0.66430E-04   -0.15293E-04  2100   0.246E-02    0.119E-01
RMM:  20    -0.501391946135E+03   -0.59401E-04   -0.95179E-05  2098   0.200E-02    0.974E-02
RMM:  21    -0.501392057301E+03   -0.11117E-03   -0.56447E-05  2102   0.147E-02    0.779E-02
RMM:  22    -0.501392096538E+03   -0.39237E-04   -0.28973E-05  2096   0.110E-02    0.467E-02
RMM:  23    -0.501392164837E+03   -0.68299E-04   -0.15325E-05  2089   0.776E-03    0.492E-02
RMM:  24    -0.501392221096E+03   -0.56259E-04   -0.10388E-05  1960   0.662E-03    0.317E-02
RMM:  25    -0.501392264155E+03   -0.43059E-04   -0.53535E-06  1770   0.490E-03    0.278E-02
RMM:  26    -0.501392313607E+03   -0.49452E-04   -0.32493E-06  1601   0.395E-03    0.189E-02
RMM:  27    -0.501392355945E+03   -0.42338E-04   -0.20109E-06  1375   0.310E-03    0.196E-02
RMM:  28    -0.501392410894E+03   -0.54949E-04   -0.16758E-06  1325   0.283E-03    0.141E-02
RMM:  29    -0.501392460910E+03   -0.50016E-04   -0.16310E-06  1339   0.265E-03    0.171E-02
RMM:  30    -0.501392524939E+03   -0.64029E-04   -0.20162E-06  1397   0.283E-03    0.138E-02
RMM:  31    -0.501392586405E+03   -0.61466E-04   -0.20836E-06  1399   0.277E-03    0.161E-02
RMM:  32    -0.501392647975E+03   -0.61570E-04   -0.20402E-06  1384   0.263E-03    0.104E-02
RMM:  33    -0.501392685331E+03   -0.37356E-04   -0.15015E-06  1320   0.234E-03    0.121E-02
RMM:  34    -0.501392725226E+03   -0.39895E-04   -0.15031E-06  1362   0.215E-03    0.743E-03
RMM:  35    -0.501392738112E+03   -0.12886E-04   -0.66516E-07  1223   0.163E-03    0.751E-03
RMM:  36    -0.501392753944E+03   -0.15832E-04   -0.60765E-07  1245   0.138E-03    0.491E-03
RMM:  37    -0.501392759254E+03   -0.53103E-05   -0.29790E-07  1203   0.113E-03    0.383E-03
RMM:  38    -0.501392766360E+03   -0.71060E-05   -0.24049E-07  1214   0.816E-04    0.278E-03
RMM:  39    -0.501392768680E+03   -0.23198E-05   -0.11808E-07  1146   0.703E-04    0.258E-03
RMM:  40    -0.501392772211E+03   -0.35312E-05   -0.85287E-08  1038   0.512E-04    0.219E-03
RMM:  41    -0.501392773493E+03   -0.12816E-05   -0.39156E-08   965   0.437E-04    0.145E-03
RMM:  42    -0.501392775703E+03   -0.22107E-05   -0.24004E-08   758   0.319E-04    0.167E-03
RMM:  43    -0.501392776879E+03   -0.11758E-05   -0.12095E-08   670   0.292E-04    0.991E-04
RMM:  44    -0.501392778997E+03   -0.21182E-05   -0.11239E-08   513   0.269E-04    0.114E-03
RMM:  45    -0.501392780556E+03   -0.15585E-05   -0.10435E-08   497   0.250E-04    0.778E-04
RMM:  46    -0.501392782688E+03   -0.21320E-05   -0.25566E-08   615   0.283E-04    0.105E-03
RMM:  47    -0.501392784990E+03   -0.23016E-05   -0.32162E-08   623   0.285E-04    0.687E-04
RMM:  48    -0.501392785809E+03   -0.81902E-06   -0.10305E-08   507   0.273E-04
   6 F= -.53639679E+03 E0= -.53640327E+03  d E =-.422699E+00  mag=    94.2888
       N       E                     dE             d eps       ncg     rms          rms(c)
DAV:   1    -0.501366368248E+03    0.26417E-01   -0.12678E+01  2096   0.430E+00    0.147E+00
RMM:   2    -0.501457807864E+03   -0.91440E-01   -0.21465E-01  2100   0.109E+00    0.400E+00
RMM:   3    -0.501482860872E+03   -0.25053E-01   -0.99783E-02  2210   0.628E-01    0.469E+00
RMM:   4    -0.501478337707E+03    0.45232E-02   -0.46808E-02  2102   0.431E-01    0.465E+00
RMM:   5    -0.501411233929E+03    0.67104E-01   -0.27520E-02  2100   0.348E-01    0.140E+00
RMM:   6    -0.501406658675E+03    0.45753E-02   -0.59359E-03  2100   0.161E-01    0.621E-01
RMM:   7    -0.501406948975E+03   -0.29030E-03   -0.20725E-03  2100   0.908E-02    0.697E-01
RMM:   8    -0.501406220041E+03    0.72893E-03   -0.15585E-03  2103   0.786E-02    0.531E-01
RMM:   9    -0.501405794050E+03    0.42599E-03   -0.11413E-03  2100   0.692E-02    0.420E-01
RMM:  10    -0.501406797865E+03   -0.10038E-02   -0.16401E-03  2099   0.779E-02    0.749E-01
RMM:  11    -0.501405688866E+03    0.11090E-02   -0.14609E-03  2104   0.749E-02    0.332E-01
RMM:  12    -0.501405545395E+03    0.14347E-03   -0.65321E-04  2100   0.516E-02    0.251E-01
RMM:  13    -0.501405465338E+03    0.80057E-04   -0.27861E-04  2100   0.334E-02    0.170E-01
RMM:  14    -0.501405426306E+03    0.39032E-04   -0.11147E-04  2100   0.219E-02    0.101E-01
RMM:  15    -0.501405421124E+03    0.51823E-05   -0.45204E-05  2096   0.135E-02    0.746E-02
RMM:  16    -0.501405419564E+03    0.15595E-05   -0.23773E-05  2096   0.999E-03    0.386E-02
RMM:  17    -0.501405436639E+03   -0.17075E-04   -0.15250E-05  2096   0.746E-03    0.448E-02
RMM:  18    -0.501405443044E+03   -0.64044E-05   -0.10219E-05  2083   0.618E-03    0.263E-02
RMM:  19    -0.501405450196E+03   -0.71523E-05   -0.71161E-06  1888   0.527E-03    0.301E-02
RMM:  20    -0.501405448023E+03    0.21726E-05   -0.39465E-06  1646   0.432E-03    0.116E-02
RMM:  21    -0.501405447179E+03    0.84444E-06   -0.15261E-06  1205   0.281E-03
   7 F= -.53641445E+03 E0= -.53642109E+03  d E =-.440361E+00  mag=    94.2835
       N       E                     dE             d eps       ncg     rms          rms(c)
DAV:   1    -0.501378406355E+03    0.27042E-01   -0.45187E+01  2096   0.803E+00    0.242E+00
RMM:   2    -0.501532986786E+03   -0.15458E+00   -0.74785E-01  2100   0.205E+00    0.362E+00
RMM:   3    -0.501677255685E+03   -0.14427E+00   -0.30260E-01  2229   0.108E+00    0.706E+00
RMM:   4    -0.501570080921E+03    0.10717E+00   -0.11072E-01  2102   0.678E-01    0.423E+00
RMM:   5    -0.501519879496E+03    0.50201E-01   -0.30216E-02  2103   0.353E-01    0.184E+00
RMM:   6    -0.501511903514E+03    0.79760E-02   -0.94339E-03  2105   0.193E-01    0.105E+00
RMM:   7    -0.501511477941E+03    0.42557E-03   -0.48792E-03  2100   0.137E-01    0.111E+00
RMM:   8    -0.501508443944E+03    0.30340E-02   -0.32801E-03  2100   0.115E-01    0.648E-01
RMM:   9    -0.501508961486E+03   -0.51754E-03   -0.31570E-03  2102   0.111E-01    0.862E-01
RMM:  10    -0.501510233453E+03   -0.12720E-02   -0.51188E-03  2102   0.135E-01    0.118E+00
RMM:  11    -0.501508325083E+03    0.19084E-02   -0.48862E-03  2109   0.135E-01    0.723E-01
RMM:  12    -0.501507072618E+03    0.12525E-02   -0.25821E-03  2102   0.101E-01    0.398E-01
RMM:  13    -0.501506614685E+03    0.45793E-03   -0.74863E-04  2100   0.555E-02    0.170E-01
RMM:  14    -0.501506612836E+03    0.18499E-05   -0.21799E-04  2100   0.297E-02    0.165E-01
RMM:  15    -0.501506543320E+03    0.69516E-04   -0.10605E-04  2100   0.211E-02    0.755E-02
RMM:  16    -0.501506551802E+03   -0.84828E-05   -0.58387E-05  2096   0.148E-02    0.784E-02
RMM:  17    -0.501506552515E+03   -0.71244E-06   -0.47943E-05  2103   0.126E-02    0.603E-02
RMM:  18    -0.501506568861E+03   -0.16346E-04   -0.38160E-05  2097   0.119E-02    0.593E-02
RMM:  19    -0.501506583827E+03   -0.14966E-04   -0.25204E-05  2099   0.920E-03    0.437E-02
RMM:  20    -0.501506586138E+03   -0.23112E-05   -0.10642E-05  2008   0.654E-03    0.301E-02
RMM:  21    -0.501506592283E+03   -0.61453E-05   -0.48854E-06  1750   0.450E-03    0.245E-02
RMM:  22    -0.501506596427E+03   -0.41434E-05   -0.25023E-06  1414   0.367E-03    0.145E-02
RMM:  23    -0.501506601640E+03   -0.52134E-05   -0.11772E-06  1191   0.245E-03    0.125E-02
RMM:  24    -0.501506606674E+03   -0.50341E-05   -0.76542E-07  1183   0.209E-03    0.779E-03
RMM:  25    -0.501506612173E+03   -0.54988E-05   -0.45046E-07  1181   0.148E-03    0.862E-03
RMM:  26    -0.501506618139E+03   -0.59661E-05   -0.35474E-07  1191   0.137E-03    0.638E-03
RMM:  27    -0.501506623797E+03   -0.56582E-05   -0.28501E-07  1187   0.113E-03    0.737E-03
RMM:  28    -0.501506629916E+03   -0.61191E-05   -0.29790E-07  1203   0.118E-03    0.526E-03
RMM:  29    -0.501506636053E+03   -0.61368E-05   -0.29290E-07  1209   0.110E-03    0.595E-03
RMM:  30    -0.501506643893E+03   -0.78399E-05   -0.34837E-07  1221   0.112E-03    0.421E-03
RMM:  31    -0.501506647369E+03   -0.34760E-05   -0.23216E-07  1204   0.961E-04    0.415E-03
RMM:  32    -0.501506651320E+03   -0.39514E-05   -0.23396E-07  1218   0.836E-04    0.319E-03
RMM:  33    -0.501506652793E+03   -0.14729E-05   -0.11765E-07  1138   0.699E-04    0.280E-03
RMM:  34    -0.501506655176E+03   -0.23824E-05   -0.97896E-08  1161   0.566E-04    0.214E-03
RMM:  35    -0.501506656073E+03   -0.89731E-06   -0.46765E-08   997   0.483E-04
   8 F= -.53650738E+03 E0= -.53651351E+03  d E =-.929361E-01  mag=    94.3388
       N       E                     dE             d eps       ncg     rms          rms(c)
DAV:   1    -0.501502602487E+03    0.40527E-02   -0.40147E+00  2104   0.239E+00    0.710E-01
RMM:   2    -0.501515912656E+03   -0.13310E-01   -0.62436E-02  2100   0.582E-01    0.104E+00
RMM:   3    -0.501533869626E+03   -0.17957E-01   -0.25523E-02  2230   0.313E-01    0.235E+00
RMM:   4    -0.501523650988E+03    0.10219E-01   -0.95664E-03  2107   0.198E-01    0.170E+00
RMM:   5    -0.501514819906E+03    0.88311E-02   -0.39386E-03  2100   0.130E-01    0.559E-01
RMM:   6    -0.501514139740E+03    0.68017E-03   -0.92721E-04  2101   0.614E-02    0.247E-01
RMM:   7    -0.501514160093E+03   -0.20352E-04   -0.34630E-04  2100   0.368E-02    0.288E-01
RMM:   8    -0.501513956242E+03    0.20385E-03   -0.26119E-04  2103   0.314E-02    0.201E-01
RMM:   9    -0.501513993861E+03   -0.37619E-04   -0.26421E-04  2102   0.321E-02    0.262E-01
RMM:  10    -0.501514201689E+03   -0.20783E-03   -0.50693E-04  2099   0.422E-02    0.384E-01
RMM:  11    -0.501513877474E+03    0.32422E-03   -0.44647E-04  2107   0.408E-02    0.159E-01
RMM:  12    -0.501513834324E+03    0.43150E-04   -0.16914E-04  2100   0.261E-02    0.107E-01
RMM:  13    -0.501513803709E+03    0.30615E-04   -0.51777E-05  2099   0.144E-02    0.482E-02
RMM:  14    -0.501513802617E+03    0.10924E-05   -0.14318E-05  2083   0.773E-03    0.353E-02
RMM:  15    -0.501513803468E+03   -0.85122E-06   -0.73681E-06  2070   0.530E-03
   9 F= -.53651255E+03 E0= -.53651850E+03  d E =-.981044E-01  mag=    94.3503
       N       E                     dE             d eps       ncg     rms          rms(c)
DAV:   1    -0.501490076815E+03    0.23726E-01   -0.24015E+01  2096   0.584E+00    0.180E+00
RMM:   2    -0.501575724141E+03   -0.85647E-01   -0.38974E-01  2101   0.144E+00    0.285E+00
RMM:   3    -0.501696844401E+03   -0.12112E+00   -0.16643E-01  2222   0.790E-01    0.629E+00
RMM:   4    -0.501633843971E+03    0.63000E-01   -0.57034E-02  2104   0.477E-01    0.443E+00
RMM:   5    -0.501564106301E+03    0.69738E-01   -0.30312E-02  2100   0.358E-01    0.110E+00
RMM:   6    -0.501561867066E+03    0.22392E-02   -0.62089E-03  2100   0.160E-01    0.747E-01
RMM:   7    -0.501562297468E+03   -0.43040E-03   -0.28936E-03  2100   0.105E-01    0.946E-01
RMM:   8    -0.501560199623E+03    0.20978E-02   -0.18917E-03  2102   0.869E-02    0.435E-01
RMM:   9    -0.501560411648E+03   -0.21203E-03   -0.18458E-03  2104   0.849E-02    0.587E-01
RMM:  10    -0.501560938506E+03   -0.52686E-03   -0.27626E-03  2100   0.953E-02    0.757E-01
RMM:  11    -0.501560075719E+03    0.86279E-03   -0.21570E-03  2108   0.900E-02    0.495E-01
RMM:  12    -0.501559443886E+03    0.63183E-03   -0.11264E-03  2101   0.668E-02    0.260E-01
RMM:  13    -0.501559261876E+03    0.18201E-03   -0.34139E-04  2100   0.377E-02    0.123E-01
RMM:  14    -0.501559249661E+03    0.12215E-04   -0.10488E-04  2099   0.207E-02    0.109E-01
RMM:  15    -0.501559209342E+03    0.40319E-04   -0.52842E-05  2097   0.151E-02    0.644E-02
RMM:  16    -0.501559211673E+03   -0.23309E-05   -0.28277E-05  2097   0.106E-02    0.592E-02
RMM:  17    -0.501559204997E+03    0.66755E-05   -0.23147E-05  2096   0.882E-03    0.417E-02
RMM:  18    -0.501559211675E+03   -0.66775E-05   -0.14669E-05  2096   0.747E-03    0.365E-02
RMM:  19    -0.501559225514E+03   -0.13839E-04   -0.10902E-05  2096   0.612E-03    0.371E-02
RMM:  20    -0.501559229530E+03   -0.40167E-05   -0.52478E-06  1760   0.465E-03    0.195E-02
RMM:  21    -0.501559240517E+03   -0.10986E-04   -0.23276E-06  1415   0.338E-03    0.185E-02
RMM:  22    -0.501559255247E+03   -0.14731E-04   -0.14329E-06  1211   0.289E-03    0.104E-02
RMM:  23    -0.501559266296E+03   -0.11049E-04   -0.72013E-07  1186   0.189E-03    0.107E-02
RMM:  24    -0.501559287073E+03   -0.20777E-04   -0.67785E-07  1221   0.175E-03    0.952E-03
RMM:  25    -0.501559301568E+03   -0.14495E-04   -0.48791E-07  1196   0.152E-03    0.829E-03
RMM:  26    -0.501559327074E+03   -0.25506E-04   -0.50940E-07  1230   0.132E-03    0.780E-03
RMM:  27    -0.501559347162E+03   -0.20088E-04   -0.51270E-07  1215   0.143E-03    0.775E-03
RMM:  28    -0.501559378743E+03   -0.31581E-04   -0.73583E-07  1252   0.142E-03    0.715E-03
RMM:  29    -0.501559398085E+03   -0.19342E-04   -0.55002E-07  1228   0.142E-03    0.584E-03
RMM:  30    -0.501559420838E+03   -0.22753E-04   -0.60142E-07  1251   0.121E-03    0.568E-03
RMM:  31    -0.501559431143E+03   -0.10305E-04   -0.32306E-07  1211   0.110E-03    0.353E-03
RMM:  32    -0.501559442633E+03   -0.11490E-04   -0.26907E-07  1214   0.802E-04    0.324E-03
RMM:  33    -0.501559446634E+03   -0.40007E-05   -0.12326E-07  1121   0.715E-04    0.241E-03
RMM:  34    -0.501559452193E+03   -0.55593E-05   -0.98859E-08  1086   0.519E-04    0.229E-03
RMM:  35    -0.501559454481E+03   -0.22880E-05   -0.51365E-08  1007   0.479E-04    0.145E-03
RMM:  36    -0.501559457544E+03   -0.30628E-05   -0.32317E-08   770   0.337E-04    0.136E-03
RMM:  37    -0.501559458855E+03   -0.13111E-05   -0.17881E-08   734   0.320E-04    0.106E-03
RMM:  38    -0.501559460364E+03   -0.15090E-05   -0.78761E-09   455   0.270E-04    0.984E-04
RMM:  39    -0.501559461184E+03   -0.82018E-06   -0.38130E-09   391   0.253E-04
  10 F= -.53654881E+03 E0= -.53655379E+03  d E =-.362575E-01  mag=    94.4186
       N       E                     dE             d eps       ncg     rms          rms(c)
DAV:   1    -0.501559751530E+03   -0.29117E-03   -0.69978E-01  2120   0.996E-01    0.304E-01
RMM:   2    -0.501562047245E+03   -0.22957E-02   -0.10794E-02  2101   0.237E-01    0.443E-01
RMM:   3    -0.501565124591E+03   -0.30773E-02   -0.48559E-03  2208   0.136E-01    0.998E-01
RMM:   4    -0.501563836468E+03    0.12881E-02   -0.16274E-03  2106   0.819E-02    0.745E-01
RMM:   5    -0.501561836362E+03    0.20001E-02   -0.73157E-04  2101   0.554E-02    0.171E-01
RMM:   6    -0.501561796539E+03    0.39823E-04   -0.15128E-04  2100   0.253E-02    0.950E-02
RMM:   7    -0.501561819857E+03   -0.23318E-04   -0.63209E-05  2101   0.153E-02    0.153E-01
RMM:   8    -0.501561765672E+03    0.54185E-04   -0.48559E-05  2098   0.134E-02    0.741E-02
RMM:   9    -0.501561772546E+03   -0.68745E-05   -0.55445E-05  2102   0.146E-02    0.905E-02
RMM:  10    -0.501561774067E+03   -0.15211E-05   -0.85653E-05  2098   0.166E-02    0.901E-02
RMM:  11    -0.501561749583E+03    0.24484E-04   -0.44895E-05  2098   0.132E-02    0.498E-02
RMM:  12    -0.501561744938E+03    0.46452E-05   -0.15253E-05  2070   0.772E-03    0.364E-02
RMM:  13    -0.501561742393E+03    0.25448E-05   -0.46713E-06  1722   0.441E-03    0.208E-02
RMM:  14    -0.501561742030E+03    0.36244E-06   -0.20110E-06  1310   0.310E-03
  11 F= -.53654959E+03 E0= -.53655442E+03  d E =-.370329E-01  mag=    94.4240
       N       E                     dE             d eps       ncg     rms          rms(c)
DAV:   1    -0.501549382399E+03    0.12360E-01   -0.11317E+01  2096   0.402E+00    0.137E+00
RMM:   2    -0.501598343030E+03   -0.48961E-01   -0.18556E-01  2100   0.992E-01    0.230E+00
RMM:   3    -0.501648913978E+03   -0.50571E-01   -0.91477E-02  2202   0.599E-01    0.419E+00
RMM:   4    -0.501632096431E+03    0.16818E-01   -0.32220E-02  2104   0.363E-01    0.357E+00
RMM:   5    -0.501589097410E+03    0.42999E-01   -0.15334E-02  2101   0.256E-01    0.903E-01
RMM:   6    -0.501587446847E+03    0.16506E-02   -0.35451E-03  2100   0.123E-01    0.473E-01
RMM:   7    -0.501587672870E+03   -0.22602E-03   -0.13885E-03  2103   0.723E-02    0.660E-01
RMM:   8    -0.501586831770E+03    0.84110E-03   -0.93704E-04  2100   0.602E-02    0.336E-01
RMM:   9    -0.501586598209E+03    0.23356E-03   -0.83845E-04  2102   0.568E-02    0.326E-01
RMM:  10    -0.501586667513E+03   -0.69304E-04   -0.11653E-03  2103   0.646E-02    0.401E-01
RMM:  11    -0.501586489007E+03    0.17851E-03   -0.10293E-03  2109   0.629E-02    0.349E-01
RMM:  12    -0.501586144661E+03    0.34435E-03   -0.52006E-04  2100   0.455E-02    0.179E-01
RMM:  13    -0.501586062216E+03    0.82445E-04   -0.13894E-04  2102   0.241E-02    0.901E-02
RMM:  14    -0.501586065919E+03   -0.37031E-05   -0.45897E-05  2096   0.131E-02    0.997E-02
RMM:  15    -0.501586043348E+03    0.22571E-04   -0.25667E-05  2096   0.101E-02    0.368E-02
RMM:  16    -0.501586046386E+03   -0.30379E-05   -0.13450E-05  2096   0.730E-03    0.402E-02
RMM:  17    -0.501586057954E+03   -0.11568E-04   -0.11848E-05  2096   0.614E-03    0.290E-02
RMM:  18    -0.501586065984E+03   -0.80300E-05   -0.62719E-06  1841   0.492E-03    0.214E-02
RMM:  19    -0.501586092272E+03   -0.26288E-04   -0.48602E-06  1779   0.441E-03    0.241E-02
RMM:  20    -0.501586105112E+03   -0.12840E-04   -0.24342E-06  1370   0.362E-03    0.104E-02
RMM:  21    -0.501586120111E+03   -0.14998E-04   -0.11008E-06  1179   0.233E-03    0.119E-02
RMM:  22    -0.501586141266E+03   -0.21155E-04   -0.70353E-07  1187   0.197E-03    0.649E-03
RMM:  23    -0.501586156128E+03   -0.14862E-04   -0.31579E-07  1168   0.125E-03    0.585E-03
RMM:  24    -0.501586179551E+03   -0.23423E-04   -0.24441E-07  1187   0.100E-03    0.499E-03
RMM:  25    -0.501586199284E+03   -0.19734E-04   -0.18616E-07  1179   0.867E-04    0.471E-03
RMM:  26    -0.501586233961E+03   -0.34677E-04   -0.25632E-07  1197   0.808E-04    0.421E-03
RMM:  27    -0.501586257183E+03   -0.23222E-04   -0.17669E-07  1168   0.747E-04    0.355E-03
RMM:  28    -0.501586297531E+03   -0.40348E-04   -0.32686E-07  1199   0.747E-04    0.373E-03
RMM:  29    -0.501586328315E+03   -0.30784E-04   -0.27563E-07  1182   0.778E-04    0.328E-03
RMM:  30    -0.501586362746E+03   -0.34431E-04   -0.36680E-07  1178   0.741E-04    0.320E-03
RMM:  31    -0.501586381715E+03   -0.18969E-04   -0.20683E-07  1129   0.682E-04    0.204E-03
RMM:  32    -0.501586404491E+03   -0.22776E-04   -0.30384E-07  1114   0.586E-04    0.181E-03
RMM:  33    -0.501586411644E+03   -0.71534E-05   -0.10220E-07  1043   0.522E-04    0.167E-03
RMM:  34    -0.501586418763E+03   -0.71189E-05   -0.10362E-07   937   0.429E-04    0.132E-03
RMM:  35    -0.501586420469E+03   -0.17054E-05   -0.37662E-08   843   0.360E-04    0.970E-04
RMM:  36    -0.501586421474E+03   -0.10054E-05   -0.44771E-08   718   0.315E-04    0.934E-04
RMM:  37    -0.501586421291E+03    0.18255E-06   -0.12234E-08   565   0.286E-04
  12 F= -.53656562E+03 E0= -.53657011E+03  d E =-.160383E-01  mag=    94.4565
       N       E                     dE             d eps       ncg     rms          rms(c)
DAV:   1    -0.501586837689E+03   -0.41621E-03   -0.73797E-01  2144   0.103E+00    0.347E-01
RMM:   2    -0.501589852891E+03   -0.30152E-02   -0.11729E-02  2100   0.246E-01    0.555E-01
RMM:   3    -0.501593042059E+03   -0.31892E-02   -0.60093E-03  2202   0.154E-01    0.105E+00
RMM:   4    -0.501591605162E+03    0.14369E-02   -0.20924E-03  2104   0.938E-02    0.818E-01
RMM:   5    -0.501589376599E+03    0.22286E-02   -0.77922E-04  2101   0.574E-02    0.218E-01
RMM:   6    -0.501589291838E+03    0.84762E-04   -0.19165E-04  2101   0.286E-02    0.105E-01
RMM:   7    -0.501589310885E+03   -0.19047E-04   -0.74834E-05  2100   0.167E-02    0.156E-01
RMM:   8    -0.501589260935E+03    0.49950E-04   -0.55653E-05  2099   0.145E-02    0.831E-02
RMM:   9    -0.501589249982E+03    0.10952E-04   -0.53411E-05  2099   0.143E-02    0.893E-02
RMM:  10    -0.501589258482E+03   -0.85001E-05   -0.78099E-05  2102   0.166E-02    0.125E-01
RMM:  11    -0.501589227135E+03    0.31347E-04   -0.68963E-05  2105   0.160E-02    0.906E-02
RMM:  12    -0.501589209297E+03    0.17839E-04   -0.35034E-05  2098   0.116E-02    0.564E-02
RMM:  13    -0.501589201331E+03    0.79659E-05   -0.10353E-05  1957   0.655E-03    0.227E-02
RMM:  14    -0.501589200064E+03    0.12670E-05   -0.29799E-06  1575   0.367E-03    0.179E-02
RMM:  15    -0.501589198878E+03    0.11854E-05   -0.14836E-06  1175   0.280E-03    0.883E-03
RMM:  16    -0.501589198834E+03    0.44194E-07   -0.91776E-07  1156   0.210E-03
  13 F= -.53656626E+03 E0= -.53657065E+03  d E =-.166704E-01  mag=    94.4603
       N       E                     dE             d eps       ncg     rms          rms(c)
DAV:   1    -0.501586058487E+03    0.31404E-02   -0.54658E+00  2096   0.283E+00    0.994E-01
RMM:   2    -0.501613172396E+03   -0.27114E-01   -0.87235E-02  2100   0.669E-01    0.183E+00
RMM:   3    -0.501625970483E+03   -0.12798E-01   -0.46408E-02  2175   0.436E-01    0.249E+00
RMM:   4    -0.501609113866E+03    0.16857E-01   -0.16750E-02  2102   0.270E-01    0.118E+00
RMM:   5    -0.501604968658E+03    0.41452E-02   -0.37877E-03  2101   0.129E-01    0.516E-01
RMM:   6    -0.501604463121E+03    0.50554E-03   -0.79314E-04  2108   0.531E-02    0.389E-01
RMM:   7    -0.501604283340E+03    0.17978E-03   -0.56105E-04  2098   0.467E-02    0.402E-01
RMM:   8    -0.501603932057E+03    0.35128E-03   -0.41281E-04  2101   0.400E-02    0.266E-01
RMM:   9    -0.501603805728E+03    0.12633E-03   -0.38693E-04  2099   0.385E-02    0.279E-01
RMM:  10    -0.501603718429E+03    0.87299E-04   -0.48007E-04  2103   0.411E-02    0.296E-01
RMM:  11    -0.501603669740E+03    0.48689E-04   -0.46637E-04  2100   0.421E-02    0.286E-01
RMM:  12    -0.501603518891E+03    0.15085E-03   -0.30044E-04  2104   0.346E-02    0.198E-01
RMM:  13    -0.501603421658E+03    0.97233E-04   -0.10819E-04  2099   0.213E-02    0.686E-02
RMM:  14    -0.501603415332E+03    0.63260E-05   -0.27716E-05  2096   0.107E-02    0.468E-02
RMM:  15    -0.501603418393E+03   -0.30612E-05   -0.11679E-05  2092   0.686E-03    0.285E-02
RMM:  16    -0.501603427309E+03   -0.89159E-05   -0.59994E-06  1835   0.500E-03    0.242E-02
RMM:  17    -0.501603446743E+03   -0.19434E-04   -0.54071E-06  1912   0.437E-03    0.199E-02
RMM:  18    -0.501603464549E+03   -0.17806E-04   -0.30846E-06  1492   0.363E-03    0.137E-02
RMM:  19    -0.501603504315E+03   -0.39766E-04   -0.27629E-06  1368   0.342E-03    0.178E-02
RMM:  20    -0.501603528212E+03   -0.23897E-04   -0.16983E-06  1200   0.311E-03    0.715E-03
RMM:  21    -0.501603550130E+03   -0.21918E-04   -0.67498E-07  1176   0.176E-03    0.748E-03
RMM:  22    -0.501603577228E+03   -0.27098E-04   -0.41227E-07  1185   0.147E-03    0.418E-03
RMM:  23    -0.501603599027E+03   -0.21798E-04   -0.18508E-07  1169   0.895E-04    0.400E-03
RMM:  24    -0.501603634078E+03   -0.35051E-04   -0.16861E-07  1188   0.740E-04    0.330E-03
RMM:  25    -0.501603660124E+03   -0.26046E-04   -0.11609E-07  1101   0.597E-04    0.314E-03
RMM:  26    -0.501603711255E+03   -0.51132E-04   -0.23862E-07  1184   0.623E-04    0.298E-03
RMM:  27    -0.501603749823E+03   -0.38568E-04   -0.18576E-07  1133   0.623E-04    0.267E-03
RMM:  28    -0.501603804436E+03   -0.54612E-04   -0.32305E-07  1150   0.619E-04    0.249E-03
RMM:  29    -0.501603841480E+03   -0.37044E-04   -0.22379E-07  1068   0.591E-04    0.226E-03
RMM:  30    -0.501603885422E+03   -0.43943E-04   -0.34510E-07  1054   0.580E-04    0.197E-03
RMM:  31    -0.501603903563E+03   -0.18141E-04   -0.12998E-07   996   0.490E-04    0.139E-03
RMM:  32    -0.501603928674E+03   -0.25110E-04   -0.25112E-07  1065   0.482E-04    0.153E-03
RMM:  33    -0.501603937517E+03   -0.88431E-05   -0.85957E-08   923   0.407E-04    0.896E-04
RMM:  34    -0.501603944713E+03   -0.71960E-05   -0.79751E-08   825   0.357E-04    0.105E-03
RMM:  35    -0.501603946581E+03   -0.18685E-05   -0.45548E-08   752   0.323E-04    0.493E-04
RMM:  36    -0.501603945986E+03    0.59490E-06   -0.34040E-08   649   0.288E-04
  14 F= -.53657373E+03 E0= -.53657800E+03  d E =-.747742E-02  mag=    94.4731
       N       E                     dE             d eps       ncg     rms          rms(c)
DAV:   1    -0.501604754743E+03   -0.80816E-03   -0.72719E-01  2144   0.103E+00    0.361E-01
RMM:   2    -0.501608261991E+03   -0.35072E-02   -0.11391E-02  2100   0.239E-01    0.653E-01
RMM:   3    -0.501610146856E+03   -0.18849E-02   -0.61972E-03  2170   0.159E-01    0.930E-01
RMM:   4    -0.501608264336E+03    0.18825E-02   -0.23010E-03  2101   0.999E-02    0.545E-01
RMM:   5    -0.501607407785E+03    0.85655E-03   -0.48364E-04  2105   0.459E-02    0.281E-01
RMM:   6    -0.501607157538E+03    0.25025E-03   -0.16942E-04  2102   0.263E-02    0.970E-02
RMM:   7    -0.501607171484E+03   -0.13946E-04   -0.77415E-05  2098   0.173E-02    0.142E-01
RMM:   8    -0.501607119060E+03    0.52424E-04   -0.53957E-05  2099   0.144E-02    0.957E-02
RMM:   9    -0.501607100999E+03    0.18061E-04   -0.51548E-05  2098   0.141E-02    0.999E-02
RMM:  10    -0.501607082436E+03    0.18562E-04   -0.67773E-05  2102   0.154E-02    0.111E-01
RMM:  11    -0.501607057266E+03    0.25170E-04   -0.61896E-05  2097   0.153E-02    0.940E-02
RMM:  12    -0.501607035919E+03    0.21347E-04   -0.34803E-05  2097   0.118E-02    0.672E-02
RMM:  13    -0.501607025236E+03    0.10683E-04   -0.12216E-05  2014   0.711E-03    0.246E-02
RMM:  14    -0.501607023994E+03    0.12423E-05   -0.32420E-06  1622   0.382E-03    0.166E-02
RMM:  15    -0.501607023936E+03    0.58113E-07   -0.14562E-06  1180   0.279E-03
  15 F= -.53657420E+03 E0= -.53657844E+03  d E =-.794768E-02  mag=    94.4750
       N       E                     dE             d eps       ncg     rms          rms(c)
DAV:   1    -0.501605073233E+03    0.19508E-02   -0.40870E+00  2100   0.244E+00    0.828E-01
RMM:   2    -0.501625077726E+03   -0.20004E-01   -0.64891E-02  2100   0.590E-01    0.157E+00
RMM:   3    -0.501638770903E+03   -0.13693E-01   -0.33772E-02  2187   0.370E-01    0.237E+00
RMM:   4    -0.501637589722E+03    0.11812E-02   -0.13129E-02  2107   0.233E-01    0.222E+00
RMM:   5    -0.501619261091E+03    0.18329E-01   -0.50391E-03  2100   0.148E-01    0.622E-01
RMM:   6    -0.501618328129E+03    0.93296E-03   -0.15044E-03  2100   0.814E-02    0.296E-01
RMM:   7    -0.501618343017E+03   -0.14888E-04   -0.45871E-04  2108   0.417E-02    0.353E-01
RMM:   8    -0.501618059134E+03    0.28388E-03   -0.31720E-04  2100   0.350E-02    0.224E-01
RMM:   9    -0.501617936691E+03    0.12244E-03   -0.27246E-04  2102   0.329E-02    0.194E-01
RMM:  10    -0.501617954706E+03   -0.18015E-04   -0.37872E-04  2100   0.367E-02    0.265E-01
RMM:  11    -0.501617826372E+03    0.12833E-03   -0.35659E-04  2106   0.363E-02    0.208E-01
RMM:  12    -0.501617765620E+03    0.60752E-04   -0.19903E-04  2101   0.274E-02    0.164E-01
RMM:  13    -0.501617709306E+03    0.56314E-04   -0.72513E-05  2100   0.171E-02    0.642E-02
RMM:  14    -0.501617704302E+03    0.50047E-05   -0.20184E-05  2096   0.913E-03    0.366E-02
RMM:  15    -0.501617709427E+03   -0.51258E-05   -0.84569E-06  2008   0.584E-03    0.265E-02
RMM:  16    -0.501617717956E+03   -0.85286E-05   -0.46151E-06  1732   0.452E-03    0.195E-02
RMM:  17    -0.501617735990E+03   -0.18034E-04   -0.38156E-06  1613   0.381E-03    0.189E-02
RMM:  18    -0.501617750348E+03   -0.14359E-04   -0.23474E-06  1273   0.344E-03    0.122E-02
RMM:  19    -0.501617780122E+03   -0.29774E-04   -0.20545E-06  1268   0.296E-03    0.158E-02
RMM:  20    -0.501617799490E+03   -0.19368E-04   -0.13478E-06  1189   0.280E-03    0.678E-03
RMM:  21    -0.501617816555E+03   -0.17065E-04   -0.53864E-07  1170   0.158E-03    0.676E-03
RMM:  22    -0.501617839741E+03   -0.23187E-04   -0.33902E-07  1185   0.133E-03    0.425E-03
RMM:  23    -0.501617856095E+03   -0.16354E-04   -0.15534E-07  1168   0.832E-04    0.385E-03
RMM:  24    -0.501617883735E+03   -0.27640E-04   -0.14696E-07  1184   0.683E-04    0.344E-03
RMM:  25    -0.501617904935E+03   -0.21200E-04   -0.11267E-07  1083   0.610E-04    0.342E-03
RMM:  26    -0.501617952459E+03   -0.47524E-04   -0.28078E-07  1197   0.651E-04    0.340E-03
RMM:  27    -0.501617980212E+03   -0.27753E-04   -0.16455E-07  1127   0.636E-04    0.298E-03
RMM:  28    -0.501618021413E+03   -0.41201E-04   -0.28419E-07  1135   0.606E-04    0.298E-03
RMM:  29    -0.501618048647E+03   -0.27234E-04   -0.19626E-07  1083   0.605E-04    0.250E-03
RMM:  30    -0.501618082760E+03   -0.34113E-04   -0.31965E-07  1106   0.586E-04    0.200E-03
RMM:  31    -0.501618098785E+03   -0.16026E-04   -0.15439E-07  1044   0.530E-04    0.176E-03
RMM:  32    -0.501618115950E+03   -0.17164E-04   -0.22516E-07  1040   0.505E-04    0.143E-03
RMM:  33    -0.501618120246E+03   -0.42964E-05   -0.65258E-08   915   0.404E-04    0.109E-03
RMM:  34    -0.501618123021E+03   -0.27747E-05   -0.65362E-08   833   0.348E-04    0.980E-04
RMM:  35    -0.501618122830E+03    0.19059E-06   -0.26836E-08   710   0.319E-04
  16 F= -.53657862E+03 E0= -.53658277E+03  d E =-.441682E-02  mag=    94.4932
       N       E                     dE             d eps       ncg     rms          rms(c)
DAV:   1    -0.501619163606E+03   -0.10406E-02   -0.25514E-01  2160   0.608E-01    0.206E-01
RMM:   2    -0.501620368245E+03   -0.12046E-02   -0.39901E-03  2100   0.145E-01    0.385E-01
RMM:   3    -0.501621364486E+03   -0.99624E-03   -0.20935E-03  2194   0.920E-02    0.620E-01
RMM:   4    -0.501621255339E+03    0.10915E-03   -0.82641E-04  2107   0.585E-02    0.581E-01
RMM:   5    -0.501620022447E+03    0.12329E-02   -0.34597E-04  2099   0.390E-02    0.151E-01
RMM:   6    -0.501619985281E+03    0.37166E-04   -0.90800E-05  2098   0.201E-02    0.722E-02
RMM:   7    -0.501619989598E+03   -0.43165E-05   -0.27618E-05  2096   0.102E-02    0.854E-02
RMM:   8    -0.501619972350E+03    0.17248E-04   -0.19549E-05  2096   0.863E-03    0.552E-02
RMM:   9    -0.501619964433E+03    0.79164E-05   -0.17026E-05  2096   0.821E-03    0.486E-02
RMM:  10    -0.501619965060E+03   -0.62697E-06   -0.24169E-05  2096   0.928E-03    0.721E-02
RMM:  11    -0.501619950565E+03    0.14496E-04   -0.22805E-05  2096   0.910E-03    0.522E-02
RMM:  12    -0.501619944730E+03    0.58348E-05   -0.11891E-05  2011   0.679E-03    0.376E-02
RMM:  13    -0.501619941570E+03    0.31603E-05   -0.41610E-06  1696   0.428E-03    0.155E-02
RMM:  14    -0.501619941047E+03    0.52230E-06   -0.12083E-06  1166   0.256E-03
  17 F= -.53657879E+03 E0= -.53658293E+03  d E =-.458413E-02  mag=    94.4950
       N       E                     dE             d eps       ncg     rms          rms(c)
DAV:   1    -0.501617913098E+03    0.20285E-02   -0.34284E+00  2096   0.223E+00    0.762E-01
RMM:   2    -0.501634273675E+03   -0.16361E-01   -0.54590E-02  2100   0.541E-01    0.142E+00
RMM:   3    -0.501643429095E+03   -0.91554E-02   -0.29177E-02  2199   0.344E-01    0.210E+00
RMM:   4    -0.501634073663E+03    0.93554E-02   -0.11753E-02  2102   0.222E-01    0.125E+00
RMM:   5    -0.501629791214E+03    0.42824E-02   -0.31177E-03  2099   0.117E-01    0.492E-01
RMM:   6    -0.501629207736E+03    0.58348E-03   -0.64596E-04  2108   0.501E-02    0.305E-01
RMM:   7    -0.501629064139E+03    0.14360E-03   -0.29365E-04  2102   0.337E-02    0.264E-01
RMM:   8    -0.501628880174E+03    0.18397E-03   -0.22516E-04  2100   0.289E-02    0.202E-01
RMM:   9    -0.501628788124E+03    0.92050E-04   -0.21900E-04  2107   0.291E-02    0.199E-01
RMM:  10    -0.501628890000E+03   -0.10188E-03   -0.32613E-04  2102   0.338E-02    0.317E-01
RMM:  11    -0.501628668858E+03    0.22114E-03   -0.33842E-04  2103   0.347E-02    0.176E-01
RMM:  12    -0.501628604893E+03    0.63965E-04   -0.16167E-04  2100   0.253E-02    0.124E-01
RMM:  13    -0.501628575561E+03    0.29332E-04   -0.58333E-05  2100   0.152E-02    0.565E-02
RMM:  14    -0.501628568602E+03    0.69590E-05   -0.15821E-05  2089   0.811E-03    0.298E-02
RMM:  15    -0.501628570259E+03   -0.16575E-05   -0.60423E-06  1837   0.500E-03    0.260E-02
RMM:  16    -0.501628574120E+03   -0.38612E-05   -0.37833E-06  1649   0.423E-03    0.190E-02
RMM:  17    -0.501628585556E+03   -0.11435E-04   -0.35248E-06  1543   0.369E-03    0.187E-02
RMM:  18    -0.501628594783E+03   -0.92271E-05   -0.23207E-06  1266   0.340E-03    0.101E-02
RMM:  19    -0.501628617436E+03   -0.22653E-04   -0.19698E-06  1224   0.288E-03    0.146E-02
RMM:  20    -0.501628629556E+03   -0.12120E-04   -0.12626E-06  1180   0.276E-03    0.623E-03
RMM:  21    -0.501628642283E+03   -0.12726E-04   -0.47424E-07  1168   0.148E-03    0.657E-03
RMM:  22    -0.501628656981E+03   -0.14698E-04   -0.27327E-07  1170   0.123E-03    0.374E-03
RMM:  23    -0.501628672285E+03   -0.15304E-04   -0.13337E-07  1168   0.739E-04    0.400E-03
RMM:  24    -0.501628692118E+03   -0.19832E-04   -0.12403E-07  1174   0.673E-04    0.302E-03
RMM:  25    -0.501628714617E+03   -0.22500E-04   -0.13741E-07  1118   0.600E-04    0.388E-03
RMM:  26    -0.501628747616E+03   -0.32998E-04   -0.22520E-07  1191   0.672E-04    0.273E-03
RMM:  27    -0.501628772148E+03   -0.24532E-04   -0.17436E-07  1097   0.607E-04    0.311E-03
RMM:  28    -0.501628804388E+03   -0.32240E-04   -0.27962E-07  1171   0.640E-04    0.235E-03
RMM:  29    -0.501628824607E+03   -0.20219E-04   -0.18285E-07  1071   0.573E-04    0.221E-03
RMM:  30    -0.501628843223E+03   -0.18616E-04   -0.19303E-07  1059   0.541E-04    0.182E-03
RMM:  31    -0.501628852651E+03   -0.94285E-05   -0.10451E-07   990   0.469E-04    0.158E-03
RMM:  32    -0.501628861646E+03   -0.89948E-05   -0.12622E-07  1000   0.432E-04    0.121E-03
RMM:  33    -0.501628864250E+03   -0.26040E-05   -0.56042E-08   866   0.367E-04    0.960E-04
RMM:  34    -0.501628864556E+03   -0.30645E-06   -0.52731E-08   782   0.329E-04
  18 F= -.53658221E+03 E0= -.53658629E+03  d E =-.341839E-02  mag=    94.5116
       N       E                     dE             d eps       ncg     rms          rms(c)
DAV:   1    -0.501628230902E+03    0.63335E-03   -0.15170E+00  2136   0.148E+00    0.506E-01
RMM:   2    -0.501635361159E+03   -0.71303E-02   -0.23987E-02  2100   0.358E-01    0.933E-01
RMM:   3    -0.501639794138E+03   -0.44330E-02   -0.12889E-02  2198   0.228E-01    0.143E+00
RMM:   4    -0.501635996416E+03    0.37977E-02   -0.52508E-03  2102   0.148E-01    0.903E-01
RMM:   5    -0.501633712340E+03    0.22841E-02   -0.13575E-03  2100   0.774E-02    0.419E-01
RMM:   6    -0.501633207630E+03    0.50471E-03   -0.36697E-04  2106   0.384E-02    0.198E-01
RMM:   7    -0.501633154710E+03    0.52920E-04   -0.14766E-04  2098   0.241E-02    0.158E-01
RMM:   8    -0.501633083714E+03    0.70995E-04   -0.98699E-05  2102   0.191E-02    0.133E-01
RMM:   9    -0.501633046726E+03    0.36988E-04   -0.97490E-05  2104   0.194E-02    0.134E-01
RMM:  10    -0.501633091798E+03   -0.45072E-04   -0.14714E-04  2102   0.227E-02    0.212E-01
RMM:  11    -0.501632981548E+03    0.11025E-03   -0.15118E-04  2102   0.232E-02    0.117E-01
RMM:  12    -0.501632948139E+03    0.33409E-04   -0.68275E-05  2099   0.165E-02    0.763E-02
RMM:  13    -0.501632936931E+03    0.11208E-04   -0.23899E-05  2096   0.967E-03    0.373E-02
RMM:  14    -0.501632933086E+03    0.38448E-05   -0.65699E-06  1828   0.529E-03    0.188E-02
RMM:  15    -0.501632932710E+03    0.37604E-06   -0.25100E-06  1414   0.349E-03
  19 F= -.53658265E+03 E0= -.53658672E+03  d E =-.386672E-02  mag=    94.5162
       N       E                     dE             d eps       ncg     rms          rms(c)
DAV:   1    -0.501630751742E+03    0.21813E-02   -0.28221E+00  2104   0.203E+00    0.709E-01
RMM:   2    -0.501643105725E+03   -0.12354E-01   -0.43661E-02  2100   0.490E-01    0.113E+00
RMM:   3    -0.501657580880E+03   -0.14475E-01   -0.25144E-02  2195   0.316E-01    0.220E+00
RMM:   4    -0.501648804481E+03    0.87764E-02   -0.97036E-03  2104   0.202E-01    0.147E+00
RMM:   5    -0.501641181853E+03    0.76226E-02   -0.26233E-03  2103   0.106E-01    0.508E-01
RMM:   6    -0.501640560319E+03    0.62153E-03   -0.81997E-04  2104   0.586E-02    0.240E-01
RMM:   7    -0.501640523302E+03    0.37017E-04   -0.28274E-04  2102   0.331E-02    0.252E-01
RMM:   8    -0.501640337552E+03    0.18575E-03   -0.19573E-04  2100   0.274E-02    0.176E-01
RMM:   9    -0.501640280277E+03    0.57275E-04   -0.17293E-04  2104   0.260E-02    0.179E-01
RMM:  10    -0.501640338056E+03   -0.57779E-04   -0.27747E-04  2100   0.316E-02    0.265E-01
RMM:  11    -0.501640169035E+03    0.16902E-03   -0.25969E-04  2123   0.305E-02    0.158E-01
RMM:  12    -0.501640111477E+03    0.57558E-04   -0.10682E-04  2100   0.205E-02    0.883E-02
RMM:  13    -0.501640103707E+03    0.77701E-05   -0.37121E-05  2097   0.121E-02    0.441E-02
RMM:  14    -0.501640103119E+03    0.58831E-06   -0.10374E-05  1983   0.654E-03    0.251E-02
RMM:  15    -0.501640110037E+03   -0.69175E-05   -0.42033E-06  1704   0.434E-03    0.203E-02
RMM:  16    -0.501640118033E+03   -0.79968E-05   -0.25659E-06  1421   0.354E-03    0.156E-02
RMM:  17    -0.501640136661E+03   -0.18627E-04   -0.22109E-06  1247   0.300E-03    0.133E-02
RMM:  18    -0.501640150971E+03   -0.14311E-04   -0.17452E-06  1192   0.301E-03    0.108E-02
RMM:  19    -0.501640180923E+03   -0.29952E-04   -0.14134E-06  1210   0.246E-03    0.112E-02
RMM:  20    -0.501640195280E+03   -0.14357E-04   -0.78383E-07  1171   0.214E-03    0.519E-03
RMM:  21    -0.501640212633E+03   -0.17352E-04   -0.33652E-07  1168   0.123E-03    0.628E-03
RMM:  22    -0.501640232712E+03   -0.20080E-04   -0.22571E-07  1179   0.106E-03    0.376E-03
RMM:  23    -0.501640251070E+03   -0.18357E-04   -0.12802E-07  1167   0.677E-04    0.425E-03
RMM:  24    -0.501640279357E+03   -0.28287E-04   -0.16029E-07  1171   0.681E-04    0.336E-03
RMM:  25    -0.501640305220E+03   -0.25863E-04   -0.14375E-07  1108   0.609E-04    0.345E-03
RMM:  26    -0.501640353450E+03   -0.48230E-04   -0.34957E-07  1211   0.705E-04    0.312E-03
RMM:  27    -0.501640381069E+03   -0.27619E-04   -0.20017E-07  1142   0.643E-04    0.302E-03
RMM:  28    -0.501640416163E+03   -0.35094E-04   -0.30141E-07  1141   0.638E-04    0.220E-03
RMM:  29    -0.501640438262E+03   -0.22099E-04   -0.20372E-07  1086   0.580E-04    0.233E-03
RMM:  30    -0.501640458470E+03   -0.20208E-04   -0.22189E-07  1044   0.558E-04    0.169E-03
RMM:  31    -0.501640468682E+03   -0.10212E-04   -0.13320E-07  1028   0.491E-04    0.185E-03
RMM:  32    -0.501640475907E+03   -0.72250E-05   -0.12951E-07  1001   0.447E-04    0.108E-03
RMM:  33    -0.501640476772E+03   -0.86491E-06   -0.58625E-08   831   0.360E-04
  20 F= -.53658522E+03 E0= -.53658914E+03  d E =-.256071E-02  mag=    94.5302
       N       E                     dE             d eps       ncg     rms          rms(c)
DAV:   1    -0.501640867751E+03   -0.39184E-03   -0.79482E-01  2136   0.108E+00    0.375E-01
RMM:   2    -0.501644271612E+03   -0.34039E-02   -0.12200E-02  2100   0.259E-01    0.588E-01
RMM:   3    -0.501648705785E+03   -0.44342E-02   -0.70345E-03  2196   0.167E-01    0.120E+00
RMM:   4    -0.501646219592E+03    0.24862E-02   -0.27416E-03  2103   0.107E-01    0.836E-01
RMM:   5    -0.501643774714E+03    0.24449E-02   -0.82402E-04  2101   0.595E-02    0.268E-01
RMM:   6    -0.501643627950E+03    0.14676E-03   -0.23503E-04  2103   0.315E-02    0.124E-01
RMM:   7    -0.501643620929E+03    0.70217E-05   -0.77434E-05  2100   0.174E-02    0.127E-01
RMM:   8    -0.501643571364E+03    0.49565E-04   -0.54078E-05  2101   0.143E-02    0.928E-02
RMM:   9    -0.501643555617E+03    0.15747E-04   -0.49007E-05  2103   0.138E-02    0.963E-02
RMM:  10    -0.501643573249E+03   -0.17632E-04   -0.80326E-05  2099   0.170E-02    0.146E-01
RMM:  11    -0.501643508939E+03    0.64310E-04   -0.73355E-05  2116   0.162E-02    0.809E-02
RMM:  12    -0.501643489450E+03    0.19489E-04   -0.26207E-05  2096   0.102E-02    0.386E-02
RMM:  13    -0.501643487815E+03    0.16351E-05   -0.87607E-06  1971   0.582E-03    0.241E-02
RMM:  14    -0.501643485925E+03    0.18896E-05   -0.25826E-06  1436   0.353E-03    0.114E-02
RMM:  15    -0.501643485715E+03    0.20998E-06   -0.11539E-06  1170   0.250E-03
  21 F= -.53658560E+03 E0= -.53658946E+03  d E =-.294463E-02  mag=    94.5324
       N       E                     dE             d eps       ncg     rms          rms(c)
DAV:   1    -0.501644101535E+03   -0.61561E-03   -0.10275E-01  2152   0.387E-01    0.135E-01
RMM:   2    -0.501644540428E+03   -0.43889E-03   -0.15844E-03  2100   0.930E-02    0.206E-01
RMM:   3    -0.501645068551E+03   -0.52812E-03   -0.91992E-04  2202   0.603E-02    0.426E-01
RMM:   4    -0.501644700991E+03    0.36756E-03   -0.36136E-04  2105   0.391E-02    0.251E-01
RMM:   5    -0.501644476046E+03    0.22494E-03   -0.83353E-05  2101   0.188E-02    0.931E-02
RMM:   6    -0.501644457144E+03    0.18902E-04   -0.26869E-05  2097   0.106E-02    0.464E-02
RMM:   7    -0.501644454850E+03    0.22945E-05   -0.10029E-05  1909   0.630E-03    0.472E-02
RMM:   8    -0.501644447775E+03    0.70741E-05   -0.69671E-06  1972   0.539E-03    0.330E-02
RMM:   9    -0.501644444820E+03    0.29552E-05   -0.60554E-06  1793   0.507E-03    0.344E-02
RMM:  10    -0.501644445091E+03   -0.27091E-06   -0.10391E-05  2094   0.619E-03    0.483E-02
RMM:  11    -0.501644442112E+03    0.29795E-05   -0.95646E-06  2071   0.590E-03    0.324E-02
RMM:  12    -0.501644441580E+03    0.53150E-06   -0.39070E-06  1656   0.409E-03
  22 F= -.53658561E+03 E0= -.53658945E+03  d E =-.295935E-02  mag=    94.5343
       N       E                     dE             d eps       ncg     rms          rms(c)
DAV:   1    -0.501643201726E+03    0.12404E-02   -0.17890E+00  2096   0.163E+00    0.593E-01
RMM:   2    -0.501651290268E+03   -0.80885E-02   -0.26886E-02  2100   0.384E-01    0.910E-01
RMM:   3    -0.501660172020E+03   -0.88818E-02   -0.16344E-02  2174   0.257E-01    0.176E+00
RMM:   4    -0.501653053770E+03    0.71183E-02   -0.65012E-03  2101   0.167E-01    0.986E-01
RMM:   5    -0.501650108962E+03    0.29448E-02   -0.14277E-03  2105   0.781E-02    0.406E-01
RMM:   6    -0.501649645097E+03    0.46386E-03   -0.42758E-04  2106   0.414E-02    0.185E-01
RMM:   7    -0.501649631712E+03    0.13385E-04   -0.17491E-04  2100   0.260E-02    0.223E-01
RMM:   8    -0.501649490474E+03    0.14124E-03   -0.13149E-04  2099   0.225E-02    0.137E-01
RMM:   9    -0.501649450604E+03    0.39870E-04   -0.11928E-04  2100   0.217E-02    0.140E-01
RMM:  10    -0.501649473331E+03   -0.22727E-04   -0.16600E-04  2101   0.247E-02    0.204E-01
RMM:  11    -0.501649377117E+03    0.96214E-04   -0.15354E-04  2110   0.239E-02    0.126E-01
RMM:  12    -0.501649334601E+03    0.42516E-04   -0.70679E-05  2099   0.169E-02    0.791E-02
RMM:  13    -0.501649326496E+03    0.81048E-05   -0.25462E-05  2096   0.102E-02    0.368E-02
RMM:  14    -0.501649325315E+03    0.11812E-05   -0.61926E-06  1829   0.512E-03    0.176E-02
RMM:  15    -0.501649333875E+03   -0.85602E-05   -0.26851E-06  1477   0.364E-03    0.190E-02
RMM:  16    -0.501649340880E+03   -0.70049E-05   -0.17635E-06  1196   0.306E-03    0.113E-02
RMM:  17    -0.501649353650E+03   -0.12770E-04   -0.12681E-06  1180   0.237E-03    0.118E-02
RMM:  18    -0.501649368707E+03   -0.15057E-04   -0.12398E-06  1182   0.246E-03    0.766E-03
RMM:  19    -0.501649387881E+03   -0.19173E-04   -0.90177E-07  1188   0.204E-03    0.953E-03
RMM:  20    -0.501649403888E+03   -0.16008E-04   -0.57619E-07  1171   0.178E-03    0.495E-03
RMM:  21    -0.501649415065E+03   -0.11177E-04   -0.23950E-07  1165   0.107E-03    0.449E-03
RMM:  22    -0.501649432172E+03   -0.17107E-04   -0.14985E-07  1169   0.837E-04    0.336E-03
RMM:  23    -0.501649445237E+03   -0.13065E-04   -0.85174E-08  1146   0.595E-04    0.317E-03
RMM:  24    -0.501649464960E+03   -0.19723E-04   -0.82363E-08  1029   0.502E-04    0.251E-03
RMM:  25    -0.501649485329E+03   -0.20369E-04   -0.94086E-08  1123   0.505E-04    0.266E-03
RMM:  26    -0.501649522951E+03   -0.37623E-04   -0.21182E-07  1114   0.551E-04    0.243E-03
RMM:  27    -0.501649545289E+03   -0.22338E-04   -0.13144E-07  1100   0.524E-04    0.241E-03
RMM:  28    -0.501649574800E+03   -0.29511E-04   -0.20912E-07  1058   0.521E-04    0.175E-03
RMM:  29    -0.501649589591E+03   -0.14792E-04   -0.10723E-07  1008   0.464E-04    0.167E-03
RMM:  30    -0.501649607594E+03   -0.18002E-04   -0.15488E-07   941   0.443E-04    0.130E-03
RMM:  31    -0.501649614119E+03   -0.65255E-05   -0.60360E-08   871   0.376E-04    0.128E-03
RMM:  32    -0.501649620912E+03   -0.67923E-05   -0.73447E-08   844   0.357E-04    0.859E-04
RMM:  33    -0.501649622681E+03   -0.17695E-05   -0.27843E-08   693   0.302E-04    0.631E-04
RMM:  34    -0.501649623440E+03   -0.75909E-06   -0.32837E-08   641   0.290E-04
  23 F= -.53658745E+03 E0= -.53659120E+03  d E =-.183190E-02  mag=    94.5341
