 vasp.5.4.4.18Apr17-6-g9f103f2a35 (build Jun 19 2019 11:58:18) complex          
  
 executed on             LinuxIFC date 2022.03.02  23:33:33
 running on   64 total cores
 distrk:  each k-point on   64 cores,    1 groups
 distr:  one band on NCORES_PER_BAND=  16 cores,    4 groups


--------------------------------------------------------------------------------------------------------


 INCAR:
 POTCAR:    PAW_PBE Pt 04Feb2005                  
 POTCAR:    PAW_PBE Pd 04Jan2005                  
 POTCAR:    PAW_PBE Ni 02Aug2007                  
 POTCAR:    PAW_PBE Co 02Aug2007                  
 POTCAR:    PAW_PBE Fe 06Sep2000                  
 POTCAR:    PAW_PBE Pt 04Feb2005                  
   VRHFIN =Pt: s1d9                                                             
   LEXCH  = PE                                                                  
   EATOM  =   729.1176 eV,   53.5886 Ry                                         
                                                                                
   TITEL  = PAW_PBE Pt 04Feb2005                                                
   LULTRA =        F    use ultrasoft PP ?                                      
   IUNSCR =        1    unscreen: 0-lin 1-nonlin 2-no                           
   RPACOR =    2.330    partial core radius                                     
   POMASS =  195.080; ZVAL   =   10.000    mass and valenz                      
   RCORE  =    2.600    outmost cutoff radius                                   
   RWIGS  =    2.750; RWIGS  =    1.455    wigner-seitz radius (au A)           
   ENMAX  =  230.283; ENMIN  =  172.712 eV                                      
   ICORE  =        3    local potential                                         
   LCOR   =        T    correct aug charges                                     
   LPAW   =        T    paw PP                                                  
   EAUG   =  358.966                                                            
   DEXC   =    0.000                                                            
   RMAX   =    2.658    core radius for proj-oper                               
   RAUG   =    1.300    factor for augmentation sphere                          
   RDEP   =    2.761    radius for radial grids                                 
   RDEPT  =    2.203    core radius for aug-charge                              
                                                                                
   Atomic configuration                                                         
   16 entries                                                                   
     n  l   j            E        occ.                                          
     1  0  0.50    -78401.1885   2.0000                                         
     2  0  0.50    -13770.7750   2.0000                                         
     2  1  1.50    -11931.0468   6.0000                                         
     3  0  0.50     -3234.7234   2.0000                                         
     3  1  1.50     -2699.2216   6.0000                                         
     3  2  2.50     -2119.5714  10.0000                                         
     4  0  0.50      -695.1528   2.0000                                         
     4  1  1.50      -519.6034   6.0000                                         
     4  2  2.50      -306.6786  10.0000                                         
     4  3  3.50       -70.1041  14.0000                                         
     5  0  0.50      -101.7747   2.0000                                         
     5  1  1.50       -55.9873   6.0000                                         
     5  2  2.50        -6.1423   9.0000                                         
     6  0  0.50        -5.6573   1.0000                                         
     6  1  1.50        -6.8029   0.0000                                         
     5  3  2.50        -1.3606   0.0000                                         
   Description                                                                  
     l       E           TYP  RCUT    TYP  RCUT                                 
     2     -6.1423404     23  2.500                                             
     2     -7.5029230     23  2.500                                             
     0     -5.6573207     23  2.500                                             
     0      0.7416693     23  2.500                                             
     1     -2.7211652     23  2.600                                             
     1     20.4087390     23  2.600                                             
     3     -1.3605826     23  2.500                                             
  local pseudopotential read in
  partial core-charges read in
  partial kinetic energy density read in
  atomic valenz-charges read in
  non local Contribution for L=           2  read in
    real space projection operators read in
  non local Contribution for L=           2  read in
    real space projection operators read in
  non local Contribution for L=           0  read in
    real space projection operators read in
  non local Contribution for L=           0  read in
    real space projection operators read in
  non local Contribution for L=           1  read in
    real space projection operators read in
  non local Contribution for L=           1  read in
    real space projection operators read in
    PAW grid and wavefunctions read in
 
   number of l-projection  operators is LMAX  =           6
   number of lm-projection operators is LMMAX =          18
 
 POTCAR:    PAW_PBE Pd 04Jan2005                  
   VRHFIN =Pd : s1 d9                                                           
   LEXCH  = PE                                                                  
   EATOM  =   809.7530 eV,   59.5152 Ry                                         
                                                                                
   TITEL  = PAW_PBE Pd 04Jan2005                                                
   LULTRA =        F    use ultrasoft PP ?                                      
   IUNSCR =        1    unscreen: 0-lin 1-nonlin 2-no                           
   RPACOR =    2.000    partial core radius                                     
   POMASS =  106.420; ZVAL   =   10.000    mass and valenz                      
   RCORE  =    2.600    outmost cutoff radius                                   
   RWIGS  =    2.710; RWIGS  =    1.434    wigner-seitz radius (au A)           
   ENMAX  =  250.925; ENMIN  =  188.194 eV                                      
   ICORE  =        3    local potential                                         
   LCOR   =        T    correct aug charges                                     
   LPAW   =        T    paw PP                                                  
   EAUG   =  416.230                                                            
   DEXC   =    0.000                                                            
   RMAX   =    2.653    core radius for proj-oper                               
   RAUG   =    1.300    factor for augmentation sphere                          
   RDEP   =    2.734    radius for radial grids                                 
   RDEPT  =    2.103    core radius for aug-charge                              
                                                                                
   Atomic configuration                                                         
   12 entries                                                                   
     n  l   j            E        occ.                                          
     1  0  0.50    -24164.6631   2.0000                                         
     2  0  0.50     -3530.9218   2.0000                                         
     2  1  1.50     -3165.6822   6.0000                                         
     3  0  0.50      -639.4577   2.0000                                         
     3  1  1.50      -519.4532   6.0000                                         
     3  2  2.50      -328.9757  10.0000                                         
     4  0  0.50       -88.7014   2.0000                                         
     4  1  1.50       -54.4540   6.0000                                         
     4  2  2.50        -6.6878   9.0000                                         
     5  0  0.50        -4.3543   1.0000                                         
     5  1  0.50        -1.3606   0.0000                                         
     4  3  2.50        -1.3606   0.0000                                         
   Description                                                                  
     l       E           TYP  RCUT    TYP  RCUT                                 
     2     -6.6878251     23  2.400                                             
     2     -8.0484077     23  2.400                                             
     0     -4.3542939     23  2.400                                             
     0      4.3406793     23  2.400                                             
     1     -4.0817478     23  2.600                                             
     1     15.8380318     23  2.600                                             
     3     -4.0817478     23  2.400                                             
  local pseudopotential read in
  partial core-charges read in
  partial kinetic energy density read in
  atomic valenz-charges read in
  non local Contribution for L=           2  read in
    real space projection operators read in
  non local Contribution for L=           2  read in
    real space projection operators read in
  non local Contribution for L=           0  read in
    real space projection operators read in
  non local Contribution for L=           0  read in
    real space projection operators read in
  non local Contribution for L=           1  read in
    real space projection operators read in
  non local Contribution for L=           1  read in
    real space projection operators read in
    PAW grid and wavefunctions read in
 
   number of l-projection  operators is LMAX  =           6
   number of lm-projection operators is LMMAX =          18
 
 POTCAR:    PAW_PBE Ni 02Aug2007                  
   VRHFIN =Ni:                                                                  
   LEXCH  = PE                                                                  
   EATOM  =  1077.6739 eV,   79.2068 Ry                                         
                                                                                
   TITEL  = PAW_PBE Ni 02Aug2007                                                
   LULTRA =        F    use ultrasoft PP ?                                      
   IUNSCR =        1    unscreen: 0-lin 1-nonlin 2-no                           
   RPACOR =    2.000    partial core radius                                     
   POMASS =   58.690; ZVAL   =   10.000    mass and valenz                      
   RCORE  =    2.300    outmost cutoff radius                                   
   RWIGS  =    2.430; RWIGS  =    1.286    wigner-seitz radius (au A)           
   ENMAX  =  269.532; ENMIN  =  202.149 eV                                      
   RCLOC  =    1.201    cutoff for local pot                                    
   LCOR   =        T    correct aug charges                                     
   LPAW   =        T    paw PP                                                  
   EAUG   =  544.565                                                            
   DEXC   =    0.000                                                            
   RMAX   =    2.357    core radius for proj-oper                               
   RAUG   =    1.300    factor for augmentation sphere                          
   RDEP   =    2.390    radius for radial grids                                 
   RDEPT  =    1.838    core radius for aug-charge                              
                                                                                
   Atomic configuration                                                         
    9 entries                                                                   
     n  l   j            E        occ.                                          
     1  0  0.50     -8206.4253   2.0000                                         
     2  0  0.50      -976.1748   2.0000                                         
     2  1  1.50      -839.0571   6.0000                                         
     3  0  0.50      -105.9991   2.0000                                         
     3  1  1.50       -66.4603   6.0000                                         
     3  2  2.50        -4.6458   9.0000                                         
     4  0  0.50        -4.4926   1.0000                                         
     4  1  1.50        -4.0817   0.0000                                         
     4  3  2.50        -1.3606   0.0000                                         
   Description                                                                  
     l       E           TYP  RCUT    TYP  RCUT                                 
     2     -4.6457903     23  2.300                                             
     2     -6.0063729     23  2.300                                             
     0     -4.4925590     23  2.300                                             
     0      5.0102601     23  2.300                                             
     1     -2.7211652     23  2.300                                             
     1     16.5183231     23  2.300                                             
  local pseudopotential read in
  partial core-charges read in
  partial kinetic energy density read in
  atomic valenz-charges read in
  non local Contribution for L=           2  read in
    real space projection operators read in
  non local Contribution for L=           2  read in
    real space projection operators read in
  non local Contribution for L=           0  read in
    real space projection operators read in
  non local Contribution for L=           0  read in
    real space projection operators read in
  non local Contribution for L=           1  read in
    real space projection operators read in
  non local Contribution for L=           1  read in
    real space projection operators read in
    PAW grid and wavefunctions read in
 
   number of l-projection  operators is LMAX  =           6
   number of lm-projection operators is LMMAX =          18
 
 POTCAR:    PAW_PBE Co 02Aug2007                  
   VRHFIN =Co: d8 s1                                                            
   LEXCH  = PE                                                                  
   EATOM  =   813.3670 eV,   59.7808 Ry                                         
                                                                                
   TITEL  = PAW_PBE Co 02Aug2007                                                
   LULTRA =        F    use ultrasoft PP ?                                      
   IUNSCR =        1    unscreen: 0-lin 1-nonlin 2-no                           
   RPACOR =    2.000    partial core radius                                     
   POMASS =   58.933; ZVAL   =    9.000    mass and valenz                      
   RCORE  =    2.300    outmost cutoff radius                                   
   RWIGS  =    2.460; RWIGS  =    1.302    wigner-seitz radius (au A)           
   ENMAX  =  267.968; ENMIN  =  200.976 eV                                      
   RCLOC  =    1.203    cutoff for local pot                                    
   LCOR   =        T    correct aug charges                                     
   LPAW   =        T    paw PP                                                  
   EAUG   =  477.818                                                            
   DEXC   =    0.000                                                            
   RMAX   =    2.360    core radius for proj-oper                               
   RAUG   =    1.300    factor for augmentation sphere                          
   RDEP   =    2.393    radius for radial grids                                 
   RDEPT  =    1.864    core radius for aug-charge                              
                                                                                
   Atomic configuration                                                         
    9 entries                                                                   
     n  l   j            E        occ.                                          
     1  0  0.50     -7587.6674   2.0000                                         
     2  0  0.50      -893.6084   2.0000                                         
     2  1  1.50      -764.5805   6.0000                                         
     3  0  0.50       -97.5973   2.0000                                         
     3  1  1.50       -60.9648   6.0000                                         
     3  2  2.50        -4.2382   8.0000                                         
     4  0  0.50        -4.3746   1.0000                                         
     4  1  1.50        -4.0817   0.0000                                         
     4  3  2.50        -1.3606   0.0000                                         
   Description                                                                  
     l       E           TYP  RCUT    TYP  RCUT                                 
     2     -4.2382362     23  2.300                                             
     2     -5.5988188     23  2.300                                             
     0     -4.3745797     23  2.300                                             
     0      5.7660125     23  2.300                                             
     1     -2.7211652     23  2.300                                             
     1     16.9860234     23  2.300                                             
  local pseudopotential read in
  partial core-charges read in
  partial kinetic energy density read in
  atomic valenz-charges read in
  non local Contribution for L=           2  read in
    real space projection operators read in
  non local Contribution for L=           2  read in
    real space projection operators read in
  non local Contribution for L=           0  read in
    real space projection operators read in
  non local Contribution for L=           0  read in
    real space projection operators read in
  non local Contribution for L=           1  read in
    real space projection operators read in
  non local Contribution for L=           1  read in
    real space projection operators read in
    PAW grid and wavefunctions read in
 
   number of l-projection  operators is LMAX  =           6
   number of lm-projection operators is LMMAX =          18
 
 POTCAR:    PAW_PBE Fe 06Sep2000                  
   VRHFIN =Fe:  d7 s1                                                           
   LEXCH  = PE                                                                  
   EATOM  =   594.3153 eV,   43.6809 Ry                                         
                                                                                
   TITEL  = PAW_PBE Fe 06Sep2000                                                
   LULTRA =        F    use ultrasoft PP ?                                      
   IUNSCR =        1    unscreen: 0-lin 1-nonlin 2-no                           
   RPACOR =    2.000    partial core radius                                     
   POMASS =   55.847; ZVAL   =    8.000    mass and valenz                      
   RCORE  =    2.300    outmost cutoff radius                                   
   RWIGS  =    2.460; RWIGS  =    1.302    wigner-seitz radius (au A)           
   ENMAX  =  267.882; ENMIN  =  200.911 eV                                      
   RCLOC  =    1.701    cutoff for local pot                                    
   LCOR   =        T    correct aug charges                                     
   LPAW   =        T    paw PP                                                  
   EAUG   =  511.368                                                            
   DEXC   =    0.000                                                            
   RMAX   =    2.356    core radius for proj-oper                               
   RAUG   =    1.300    factor for augmentation sphere                          
   RDEP   =    2.442    radius for radial grids                                 
   RDEPT  =    1.890    core radius for aug-charge                              
                                                                                
   Atomic configuration                                                         
    9 entries                                                                   
     n  l   j            E        occ.                                          
     1  0  0.50     -6993.8440   2.0000                                         
     2  0  0.50      -814.6047   2.0000                                         
     2  1  1.50      -693.3689   6.0000                                         
     3  0  0.50       -89.4732   2.0000                                         
     3  1  1.50       -55.6373   6.0000                                         
     3  2  2.50        -3.8151   7.0000                                         
     4  0  0.50        -4.2551   1.0000                                         
     4  1  1.50        -3.4015   0.0000                                         
     4  3  2.50        -1.3606   0.0000                                         
   Description                                                                  
     l       E           TYP  RCUT    TYP  RCUT                                 
     2     -3.8151135     23  2.300                                             
     2     -5.1756961     23  2.300                                             
     0     -4.2550963     23  2.300                                             
     0      7.2035603     23  2.300                                             
     1     -2.7211652     23  2.300                                             
     1     18.4316424     23  2.300                                             
  local pseudopotential read in
  partial core-charges read in
  partial kinetic energy density read in
  atomic valenz-charges read in
  non local Contribution for L=           2  read in
    real space projection operators read in
  non local Contribution for L=           2  read in
    real space projection operators read in
  non local Contribution for L=           0  read in
    real space projection operators read in
  non local Contribution for L=           0  read in
    real space projection operators read in
  non local Contribution for L=           1  read in
    real space projection operators read in
  non local Contribution for L=           1  read in
    real space projection operators read in
    PAW grid and wavefunctions read in
 
   number of l-projection  operators is LMAX  =           6
   number of lm-projection operators is LMMAX =          18
 
 Optimization of the real space projectors (new method)

 maximal supplied QI-value         = 14.36
 optimisation between [QCUT,QGAM] = [ 11.35, 22.84] = [ 36.05,146.02] Ry 
 Optimized for a Real-space Cutoff    1.52 Angstroem

   l    n(q)    QCUT    max X(q) W(low)/X(q) W(high)/X(q)  e(spline) 
   2      9    11.346    66.195    0.18E-03    0.31E-04    0.24E-06
   2      9    11.346    64.643    0.18E-03    0.31E-04    0.25E-06
   0     10    11.346    95.520    0.43E-04    0.40E-05    0.18E-06
   0     10    11.346    63.403    0.42E-04    0.39E-05    0.17E-06
   1     10    11.346    19.961    0.83E-04    0.43E-04    0.12E-06
   1     10    11.346    13.289    0.69E-04    0.37E-04    0.98E-07
 Optimization of the real space projectors (new method)

 maximal supplied QI-value         = 14.36
 optimisation between [QCUT,QGAM] = [ 11.35, 22.84] = [ 36.05,146.02] Ry 
 Optimized for a Real-space Cutoff    1.47 Angstroem

   l    n(q)    QCUT    max X(q) W(low)/X(q) W(high)/X(q)  e(spline) 
   2      9    11.346    59.108    0.74E-04    0.81E-04    0.26E-06
   2      9    11.346    58.101    0.74E-04    0.83E-04    0.27E-06
   0     10    11.346   102.235    0.26E-04    0.31E-04    0.16E-06
   0     10    11.346    58.388    0.23E-04    0.29E-04    0.15E-06
   1     10    11.346    22.191    0.23E-03    0.26E-03    0.14E-06
   1     10    11.346    15.590    0.19E-03    0.22E-03    0.12E-06
 Optimization of the real space projectors (new method)

 maximal supplied QI-value         = 16.25
 optimisation between [QCUT,QGAM] = [ 11.38, 22.75] = [ 36.24,144.96] Ry 
 Optimized for a Real-space Cutoff    1.47 Angstroem

   l    n(q)    QCUT    max X(q) W(low)/X(q) W(high)/X(q)  e(spline) 
   2      9    11.376    60.317    0.17E-03    0.16E-04    0.16E-06
   2      9    11.376    55.921    0.17E-03    0.16E-04    0.17E-06
   0     10    11.376    51.690    0.45E-04    0.60E-04    0.21E-06
   0     10    11.376    30.015    0.37E-04    0.55E-04    0.19E-06
   1     10    11.376    18.849    0.83E-04    0.11E-03    0.92E-07
   1     10    11.376    14.624    0.69E-04    0.92E-04    0.82E-07
 Optimization of the real space projectors (new method)

 maximal supplied QI-value         = 16.25
 optimisation between [QCUT,QGAM] = [ 11.38, 22.75] = [ 36.24,144.96] Ry 
 Optimized for a Real-space Cutoff    1.43 Angstroem

   l    n(q)    QCUT    max X(q) W(low)/X(q) W(high)/X(q)  e(spline) 
   2      9    11.376    65.824    0.18E-03    0.28E-04    0.14E-06
   2      9    11.376    61.429    0.18E-03    0.29E-04    0.14E-06
   0     10    11.376    56.174    0.51E-04    0.12E-03    0.20E-06
   0     10    11.376    31.263    0.46E-04    0.11E-03    0.18E-06
   1      9    11.376    19.828    0.23E-03    0.17E-03    0.10E-06
   1      9    11.376    15.139    0.20E-03    0.14E-03    0.89E-07
 Optimization of the real space projectors (new method)

 maximal supplied QI-value         = 16.25
 optimisation between [QCUT,QGAM] = [ 11.38, 22.75] = [ 36.24,144.96] Ry 
 Optimized for a Real-space Cutoff    1.52 Angstroem

   l    n(q)    QCUT    max X(q) W(low)/X(q) W(high)/X(q)  e(spline) 
   2      9    11.376    80.901    0.22E-03    0.86E-04    0.27E-06
   2      9    11.376    75.754    0.23E-03    0.87E-04    0.27E-06
   0     10    11.376    58.752    0.56E-04    0.38E-04    0.25E-06
   0     10    11.376    30.679    0.47E-04    0.35E-04    0.23E-06
   1     10    11.376    17.977    0.50E-04    0.42E-04    0.12E-06
   1     10    11.376    13.559    0.42E-04    0.37E-04    0.11E-06
  PAW_PBE Pt 04Feb2005                  :
 energy of atom  1       EATOM= -729.1176
 kinetic energy error for atom=    0.0039 (will be added to EATOM!!)
  PAW_PBE Pd 04Jan2005                  :
 energy of atom  2       EATOM= -809.7530
 kinetic energy error for atom=    0.0049 (will be added to EATOM!!)
  PAW_PBE Ni 02Aug2007                  :
 energy of atom  3       EATOM=-1077.6739
 kinetic energy error for atom=    0.0030 (will be added to EATOM!!)
  PAW_PBE Co 02Aug2007                  :
 energy of atom  4       EATOM= -813.3670
 kinetic energy error for atom=    0.0028 (will be added to EATOM!!)
  PAW_PBE Fe 06Sep2000                  :
 energy of atom  5       EATOM= -594.3153
 kinetic energy error for atom=    0.0026 (will be added to EATOM!!)
 
 
 POSCAR: Pt   Pd   Ni   Co   Fe                  
  positions in direct lattice
  No initial velocities read in
 exchange correlation table for  LEXCH =        8
   RHO(1)=    0.500       N(1)  =     2000
   RHO(2)=  100.500       N(2)  =     4000
 


--------------------------------------------------------------------------------------------------------


 ion  position               nearest neighbor table
   1  0.519  0.952  0.283-  23 2.51  53 2.52  41 2.54  79 2.55  16 2.55  34 2.57  67 2.62   3 2.63
                            27 2.68  64 2.69  57 2.72  30 2.75
   2  0.429  0.522  0.182-  62 2.46  55 2.55  48 2.57  51 2.58  71 2.58  33 2.59  76 2.62  70 2.68
                            45 2.70  27 2.73  24 2.74  34 2.81
   3  0.272  0.963  0.280-  23 2.46  65 2.47  57 2.58  13 2.60  63 2.61   1 2.63  67 2.66  20 2.67
                            32 2.67  31 2.67  53 2.69  66 2.69
   4  0.187  0.278  0.471-   9 2.56  35 2.57  60 2.59  14 2.61  26 2.65  12 2.67  10 2.69  42 2.71
                            77 2.72
   5  0.687  0.531  0.473-  72 2.49  50 2.53  46 2.53  60 2.55  40 2.59  29 2.59   9 2.64  78 2.66
                            47 2.68
   6  0.772  0.453  0.282-  20 2.55  18 2.60  45 2.60   7 2.61  49 2.63  41 2.63  22 2.63  33 2.64
                            23 2.66  59 2.66  40 2.67  78 2.75
   7  0.936  0.530  0.188-  76 2.54  18 2.58  52 2.60   6 2.61  20 2.61  49 2.61  33 2.62  32 2.63
                            38 2.66  37 2.67  19 2.67   8 2.69
   8  0.848  0.621  0.093-  68 2.49  55 2.58  33 2.59  38 2.62  44 2.63   7 2.69  17 2.70  37 2.74
                            19 2.77
   9  0.432  0.275  0.469-  69 2.43  35 2.51  78 2.52  63 2.54   4 2.56  60 2.57  29 2.57  14 2.59
                             5 2.64
  10  0.928  0.281  0.473-  72 2.45  58 2.45  29 2.54  12 2.60  59 2.65  26 2.68  11 2.69   4 2.69
                            42 2.69
  11  0.835  0.107  0.377-  79 2.45  16 2.53  54 2.55  59 2.56  58 2.57  64 2.62  42 2.63  41 2.64
                            26 2.64  10 2.69  77 2.72  80 2.83
  12  0.180  0.533  0.474-  10 2.60  61 2.62  72 2.62   4 2.67  28 2.72  21 2.73  60 2.73  42 2.74
                            56 2.76
  13  0.015  0.949  0.276-  22 2.44  64 2.46  80 2.49  38 2.49  20 2.54  65 2.54  43 2.55  66 2.58
                             3 2.60  77 2.62  54 2.64  31 2.72
  14  0.352  0.362  0.377-  60 2.55  78 2.56  77 2.57  63 2.58   9 2.59  47 2.60   4 2.61  45 2.65
                            21 2.66  42 2.68  65 2.74  70 2.74
  15  0.346  0.871  0.090-  39 2.53  74 2.55  44 2.59  37 2.60  32 2.62  48 2.67  27 2.68  25 2.70
                            57 2.74
  16  0.590  0.106  0.377-  53 2.39  79 2.50  63 2.50  69 2.53  78 2.53  11 2.53   1 2.55  58 2.58
                            59 2.62  23 2.65  29 2.65  41 2.71
  17  0.590  0.356  0.094-  74 2.52  39 2.52  71 2.56  62 2.57  49 2.59  55 2.61  33 2.62   8 2.70
                            19 2.70
  18  0.017  0.443  0.278-  52 2.51  70 2.52  41 2.57   7 2.58  76 2.59   6 2.60  80 2.60  67 2.61
                            42 2.64  28 2.67  20 2.72  59 2.73
  19  0.851  0.355  0.093-  75 2.52  74 2.56  73 2.59  37 2.62  52 2.64   7 2.67  49 2.68  17 2.70
                             8 2.77
  20  0.014  0.704  0.279-  22 2.46  13 2.54   6 2.55  38 2.55  67 2.60   7 2.61  32 2.65  31 2.66
                             3 2.67  28 2.68  18 2.72  40 2.73
  21  0.352  0.618  0.376-  79 2.57  47 2.58  53 2.60  28 2.65  14 2.66  60 2.66  56 2.66  42 2.67
                            34 2.70  67 2.71  12 2.73  70 2.76
  22  0.780  0.712  0.279-  13 2.44  20 2.46  64 2.48  54 2.49  38 2.53  24 2.57  34 2.59   6 2.63
                            33 2.67  40 2.71  47 2.78  45 2.79
  23  0.517  0.193  0.280-   3 2.46  57 2.50   1 2.51  45 2.55  49 2.56  41 2.56  71 2.62  16 2.65
                             6 2.66  78 2.68  63 2.68  65 2.69
  24  0.696  0.786  0.185-  38 2.49  43 2.57  22 2.57  33 2.58  68 2.58  64 2.64  34 2.65  55 2.66
                            25 2.67  30 2.72  27 2.73   2 2.74
  25  0.609  0.874  0.092-  74 2.56  75 2.61  30 2.62  68 2.64  55 2.66  27 2.66  24 2.67  15 2.70
                            48 2.71
  26  0.930  0.023  0.469-  50 2.53  46 2.54  11 2.64  35 2.65   4 2.65  54 2.67  10 2.68  58 2.70
                            77 2.72
  27  0.434  0.788  0.185-  48 2.63  67 2.63  32 2.65  25 2.66  57 2.67  30 2.67  76 2.67   1 2.68
                            15 2.68  34 2.69   2 2.73  24 2.73
  28  0.093  0.611  0.374-  59 2.58  40 2.59  42 2.61  31 2.64  21 2.65  18 2.67  67 2.67  20 2.68
                            12 2.72  61 2.73  53 2.73  72 2.75
  29  0.682  0.278  0.472-  58 2.37  72 2.41  69 2.48  10 2.54  78 2.57   9 2.57   5 2.59  59 2.61
                            16 2.65
  30  0.693  0.046  0.185-  49 2.54  52 2.57  41 2.58  74 2.61  75 2.62  25 2.62  43 2.63  57 2.66
                            27 2.67  24 2.72   1 2.75  64 2.75
  31  0.101  0.871  0.376-  77 2.52  63 2.54  40 2.62  35 2.64  28 2.64  50 2.66  61 2.66  54 2.66
                            20 2.66  53 2.67   3 2.67  13 2.72
  32  0.181  0.794  0.184-  38 2.49  66 2.57  44 2.60  15 2.62  57 2.63   7 2.63  20 2.65  27 2.65
                             3 2.67  37 2.68  67 2.69  76 2.76
  33  0.684  0.530  0.186-  49 2.52  24 2.58   8 2.59   2 2.59   7 2.62  17 2.62  45 2.64  71 2.64
                             6 2.64  38 2.65  55 2.66  22 2.67
  34  0.529  0.709  0.281-  64 2.54   1 2.57  79 2.58  22 2.59  24 2.65  47 2.66  27 2.69  21 2.70
                            45 2.72  67 2.72  70 2.80   2 2.81
  35  0.189  0.031  0.472-  61 2.49   9 2.51  69 2.52   4 2.57  63 2.61  31 2.64  26 2.65  50 2.65
                            77 2.78
  36  0.094  0.113  0.093-  75 2.39  44 2.46  68 2.47  43 2.51  66 2.51  51 2.52  73 2.54  62 2.55
                            39 2.58
  37  0.105  0.609  0.092-  48 2.48  73 2.53  76 2.56  15 2.60  19 2.62   7 2.67  32 2.68   8 2.74
                            44 2.82
  38  0.938  0.788  0.188-  13 2.49  24 2.49  32 2.49  22 2.53  66 2.54  20 2.55  43 2.56  68 2.60
                             8 2.62  33 2.65  44 2.65   7 2.66
  39  0.344  0.114  0.096-  44 2.48  66 2.50  71 2.52  62 2.52  17 2.52  15 2.53  57 2.55  36 2.58
                            74 2.61
  40  0.847  0.618  0.379-  50 2.53  47 2.56  28 2.59  54 2.59   5 2.59  31 2.62   6 2.67  59 2.67
                            78 2.67  72 2.68  22 2.71  20 2.73
  41  0.766  0.196  0.281-   1 2.54  23 2.56  18 2.57  30 2.58  64 2.60  80 2.60   6 2.63  11 2.64
                            59 2.64  49 2.65  52 2.70  16 2.71
  42  0.093  0.360  0.375-  59 2.57  77 2.58  28 2.61  11 2.63  18 2.64  70 2.67  21 2.67  14 2.68
                            10 2.69   4 2.71  80 2.74  12 2.74
  43  0.942  0.037  0.185-  66 2.43  51 2.44  80 2.48  36 2.51  75 2.54  52 2.54  13 2.55  38 2.56
                            24 2.57  68 2.59  30 2.63  64 2.64
  44  0.100  0.879  0.091-  68 2.43  36 2.46  39 2.48  66 2.57  15 2.59  32 2.60   8 2.63  38 2.65
                            37 2.82
  45  0.513  0.438  0.280-  23 2.55  65 2.57  71 2.60   6 2.60  33 2.64  70 2.65  14 2.65   2 2.70
                            34 2.72  78 2.72  47 2.75  22 2.79
  46  0.686  0.775  0.469-  50 2.50  47 2.51   5 2.53  26 2.54  60 2.56  56 2.59  54 2.67  79 2.71
                            58 2.85
  47  0.600  0.618  0.378-  46 2.51  60 2.53  54 2.53  40 2.56  21 2.58  14 2.60  79 2.60  34 2.66
                             5 2.68  78 2.71  45 2.75  22 2.78
  48  0.346  0.612  0.093-  37 2.48  73 2.52  76 2.57   2 2.57  55 2.58  62 2.62  27 2.63  15 2.67
                            25 2.71
  49  0.677  0.283  0.188-  57 2.46  71 2.51  33 2.52  30 2.54  23 2.56  17 2.59   7 2.61   6 2.63
                            41 2.65  74 2.68  19 2.68  52 2.80
  50  0.929  0.778  0.470-  46 2.50  26 2.53   5 2.53  40 2.53  61 2.63  35 2.65  31 2.66  72 2.70
                            54 2.78
  51  0.178  0.275  0.183-  66 2.43  52 2.43  43 2.44  73 2.48  62 2.49  36 2.52  80 2.57   2 2.58
                            65 2.59  76 2.59  70 2.61  71 2.63
  52  0.949  0.286  0.187-  76 2.42  51 2.43  80 2.49  73 2.51  18 2.51  43 2.54  30 2.57   7 2.60
                            75 2.61  19 2.64  41 2.70  49 2.80
  53  0.360  0.874  0.374-  16 2.39  79 2.50  63 2.51   1 2.52  21 2.60  56 2.63  67 2.66  69 2.67
                            31 2.67   3 2.69  61 2.70  28 2.73
  54  0.842  0.865  0.370-  64 2.44  22 2.49  47 2.53  79 2.54  11 2.55  40 2.59  77 2.63  13 2.64
                            31 2.66  46 2.67  26 2.67  50 2.78
  55  0.594  0.610  0.092-   2 2.55   8 2.58  48 2.58  62 2.60  17 2.61  33 2.66  25 2.66  24 2.66
                            68 2.71
  56  0.449  0.798  0.469-  58 2.52  79 2.55  46 2.59  69 2.59  53 2.63  21 2.66  61 2.66  60 2.76
                            12 2.76
  57  0.437  0.047  0.187-  71 2.37  49 2.46  23 2.50  39 2.55   3 2.58  74 2.62  32 2.63  66 2.65
                            30 2.66  27 2.67   1 2.72  15 2.74
  58  0.684  0.050  0.472-  29 2.37  10 2.45  56 2.52  69 2.52  11 2.57  16 2.58  26 2.70  79 2.77
                            46 2.85
  59  0.845  0.359  0.377-  11 2.56  78 2.56  72 2.57  42 2.57  28 2.58  29 2.61  16 2.62  41 2.64
                            10 2.65   6 2.66  40 2.67  18 2.73
  60  0.439  0.527  0.468-  47 2.53   5 2.55  14 2.55  46 2.56   9 2.57   4 2.59  21 2.66  12 2.73
                            56 2.76
  61  0.188  0.790  0.471-  35 2.49  69 2.59  12 2.62  50 2.63  31 2.66  56 2.66  53 2.70  28 2.73
                            72 2.85
  62  0.343  0.358  0.096-   2 2.46  51 2.49  73 2.50  39 2.52  36 2.55  17 2.57  71 2.59  55 2.60
                            48 2.62
  63  0.352  0.112  0.378-  78 2.50  16 2.50  53 2.51  69 2.53   9 2.54  31 2.54  14 2.58  35 2.61
                             3 2.61  77 2.62  23 2.68  65 2.81
  64  0.779  0.951  0.281-  54 2.44  80 2.44  13 2.46  22 2.48  34 2.54  41 2.60  11 2.62  43 2.64
                            24 2.64  79 2.68   1 2.69  30 2.75
  65  0.260  0.196  0.277-   3 2.47  70 2.51  80 2.52  13 2.54  66 2.54  45 2.57  71 2.57  77 2.58
                            51 2.59  23 2.69  14 2.74  63 2.81
  66  0.178  0.040  0.184-  51 2.43  43 2.43  39 2.50  71 2.51  36 2.51  65 2.54  38 2.54  44 2.57
                            32 2.57  13 2.58  57 2.65   3 2.69
  67  0.263  0.702  0.279-  20 2.60  18 2.61   1 2.62  27 2.63   3 2.66  53 2.66  28 2.67  76 2.67
                            32 2.69  70 2.70  21 2.71  34 2.72
  68  0.860  0.869  0.093-  44 2.43  36 2.47   8 2.49  75 2.57  24 2.58  43 2.59  38 2.60  25 2.64
                            55 2.71
  69  0.438  0.043  0.470-   9 2.43  29 2.48  35 2.52  58 2.52  16 2.53  63 2.53  61 2.59  56 2.59
                            53 2.67
  70  0.258  0.438  0.278-  65 2.51  18 2.52  80 2.55  51 2.61  76 2.62  45 2.65  42 2.67   2 2.68
                            67 2.70  14 2.74  21 2.76  34 2.80
  71  0.430  0.273  0.187-  57 2.37  49 2.51  66 2.51  39 2.52  17 2.56  65 2.57   2 2.58  62 2.59
                            45 2.60  23 2.62  51 2.63  33 2.64
  72  0.916  0.511  0.472-  29 2.41  10 2.45   5 2.49  59 2.57  12 2.62  40 2.68  50 2.70  28 2.75
                            61 2.85
  73  0.105  0.364  0.096-  51 2.48  75 2.49  76 2.49  62 2.50  52 2.51  48 2.52  37 2.53  36 2.54
                            19 2.59
  74  0.595  0.115  0.091-  17 2.52  15 2.55  25 2.56  19 2.56  39 2.61  30 2.61  57 2.62  49 2.68
                            75 2.79
  75  0.867  0.120  0.093-  36 2.39  73 2.49  19 2.52  43 2.54  68 2.57  25 2.61  52 2.61  30 2.62
                            74 2.79
  76  0.179  0.526  0.185-  52 2.42  73 2.49   7 2.54  37 2.56  48 2.57  18 2.59  51 2.59   2 2.62
                            70 2.62  67 2.67  27 2.67  32 2.76
  77  0.102  0.115  0.371-  31 2.52  14 2.57  42 2.58  65 2.58  63 2.62  13 2.62  54 2.63  80 2.64
                            26 2.72   4 2.72  11 2.72  35 2.78
  78  0.595  0.353  0.379-  63 2.50   9 2.52  16 2.53  14 2.56  59 2.56  29 2.57   5 2.66  40 2.67
                            23 2.68  47 2.71  45 2.72   6 2.75
  79  0.599  0.869  0.374-  11 2.45  16 2.50  53 2.50  54 2.54  56 2.55   1 2.55  21 2.57  34 2.58
                            47 2.60  64 2.68  46 2.71  58 2.77
  80  0.013  0.189  0.275-  64 2.44  43 2.48  13 2.49  52 2.49  65 2.52  70 2.55  51 2.57  41 2.60
                            18 2.60  77 2.64  42 2.74  11 2.83
 
  LATTYP: Found a triclinic cell.
 ALAT       =    10.3425421150
 B/A-ratio  =     0.9984510138
 C/A-ratio  =     2.2147666112
 COS(alpha) =     0.0010799711
 COS(beta)  =     0.0031191467
 COS(gamma) =     0.4969260012
  
  Lattice vectors:
  
 A1 = (  -0.0247690242,  10.3424999429,  -0.0160880758)
 A2 = (   8.9489666364,   5.1529516376,  -0.0116254287)
 A3 = (  -0.0218048101,   0.0357648146, -22.9062786526)


Analysis of symmetry for initial positions (statically):
=====================================================================
 Subroutine PRICEL returns:
 Original cell was already a primitive cell.
 

 Routine SETGRP: Setting up the symmetry group for a 
 triclinic supercell.


 Subroutine GETGRP returns: Found  1 space group operations
 (whereof  1 operations were pure point group operations)
 out of a pool of  2 trial point group operations.


The static configuration has the point symmetry C_1 .


Analysis of symmetry for dynamics (positions and initial velocities):
=====================================================================
 Subroutine PRICEL returns:
 Original cell was already a primitive cell.
 

 Routine SETGRP: Setting up the symmetry group for a 
 triclinic supercell.


 Subroutine GETGRP returns: Found  1 space group operations
 (whereof  1 operations were pure point group operations)
 out of a pool of  2 trial point group operations.


The dynamic configuration has the point symmetry C_1 .


Analysis of constrained symmetry for selective dynamics:
=====================================================================
 Subroutine PRICEL returns:
 Original cell was already a primitive cell.
 

 Routine SETGRP: Setting up the symmetry group for a 
 triclinic supercell.


 Subroutine GETGRP returns: Found  1 space group operations
 (whereof  1 operations were pure point group operations)
 out of a pool of  2 trial point group operations.


The constrained configuration has the point symmetry C_1 .


Analysis of structural, dynamic, and magnetic symmetry:
=====================================================================
 Subroutine PRICEL returns:
 Original cell was already a primitive cell.
 

 Routine SETGRP: Setting up the symmetry group for a 
 triclinic supercell.


 Subroutine GETGRP returns: Found  1 space group operations
 (whereof  1 operations were pure point group operations)
 out of a pool of  2 trial point group operations.


The magnetic configuration has the point symmetry C_1 .


 Subroutine INISYM returns: Found  1 space group operations
 (whereof  1 operations are pure point group operations),
 and found     1 'primitive' translations

 
 
 KPOINTS: Automatic mesh                          

Automatic generation of k-mesh.
Space group operators:
 irot       det(A)        alpha          n_x          n_y          n_z        tau_x        tau_y        tau_z
    1     1.000000     0.000001     1.000000     0.000000     0.000000     0.000000     0.000000     0.000000
 
 Subroutine IBZKPT returns following result:
 ===========================================
 
 Found      1 irreducible k-points:
 
 Following reciprocal coordinates:
            Coordinates               Weight
  0.000000  0.000000  0.000000      1.000000
 
 Following cartesian coordinates:
            Coordinates               Weight
  0.000000  0.000000  0.000000      1.000000
 


--------------------------------------------------------------------------------------------------------




 Dimension of arrays:
   k-points           NKPTS =      1   k-points in BZ     NKDIM =      1   number of bands    NBANDS=    524
   number of dos      NEDOS =    301   number of ions     NIONS =     80
   non local maximal  LDIM  =      6   non local SUM 2l+1 LMDIM =     18
   total plane-waves  NPLWV = ******
   max r-space proj   IRMAX =   7479   max aug-charges    IRDMAX=  30870
   dimension x,y,z NGX =    80 NGY =   80 NGZ =  168
   dimension x,y,z NGXF=   160 NGYF=  160 NGZF=  336
   support grid    NGXF=   160 NGYF=  160 NGZF=  336
   ions per type =              14  18  16  14  18
   NGX,Y,Z   is equivalent  to a cutoff of  12.83, 12.86, 12.19 a.u.
   NGXF,Y,Z  is equivalent  to a cutoff of  25.66, 25.72, 24.39 a.u.

 SYSTEM =  ML                                      
 POSCAR =  Pt   Pd   Ni   Co   Fe                  

 Startparameter for this run:
   NWRITE =      2    write-flag & timer
   PREC   = accura    normal or accurate (medium, high low for compatibility)
   ISTART =      0    job   : 0-new  1-cont  2-samecut
   ICHARG =      2    charge: 1-file 2-atom 10-const
   ISPIN  =      2    spin polarized calculation?
   LNONCOLLINEAR =      F non collinear calculations
   LSORBIT =      F    spin-orbit coupling
   INIWAV =      1    electr: 0-lowe 1-rand  2-diag
   LASPH  =      F    aspherical Exc in radial PAW
   METAGGA=      F    non-selfconsistent MetaGGA calc.

 Electronic Relaxation 1
   ENCUT  =  500.0 eV  36.75 Ry    6.06 a.u.  18.90 18.86 41.76*2*pi/ulx,y,z
   ENINI  =  500.0     initial cutoff
   ENAUG  =  544.6 eV  augmentation charge cutoff
   NELM   =    300;   NELMIN=  4; NELMDL= -5     # of ELM steps 
   EDIFF  = 0.1E-05   stopping-criterion for ELM
   LREAL  =      T    real-space projection
   NLSPLINE    = F    spline interpolate recip. space projectors
   LCOMPAT=      F    compatible to vasp.4.4
   GGA_COMPAT  = T    GGA compatible to vasp.4.4-vasp.4.6
   LMAXPAW     = -100 max onsite density
   LMAXMIX     =    2 max onsite mixed and CHGCAR
   VOSKOWN=      0    Vosko Wilk Nusair interpolation
   ROPT   =   -0.00025  -0.00025  -0.00025  -0.00025
   ROPT   =   -0.00025
 Ionic relaxation
   EDIFFG = -.5E-01   stopping-criterion for IOM
   NSW    =    300    number of steps for IOM
   NBLOCK =      1;   KBLOCK =    300    inner block; outer block 
   IBRION =      2    ionic relax: 0-MD 1-quasi-New 2-CG
   NFREE  =      1    steps in history (QN), initial steepest desc. (CG)
   ISIF   =      2    stress and relaxation
   IWAVPR =     11    prediction:  0-non 1-charg 2-wave 3-comb
   ISYM   =      2    0-nonsym 1-usesym 2-fastsym
   LCORR  =      T    Harris-Foulkes like correction to forces

   POTIM  = 0.5000    time-step for ionic-motion
   TEIN   =    0.0    initial temperature
   TEBEG  =    0.0;   TEEND  =   0.0 temperature during run
   SMASS  =  -3.00    Nose mass-parameter (am)
   estimated Nose-frequenzy (Omega)   =  0.10E-29 period in steps =****** mass=  -0.246E-26a.u.
   SCALEE = 1.0000    scale energy and forces
   NPACO  =    256;   APACO  = 16.0  distance and # of slots for P.C.
   PSTRESS=    0.0 pullay stress

  Mass of Ions in am
   POMASS = 195.08106.42 58.69 58.93 55.85
  Ionic Valenz
   ZVAL   =  10.00 10.00 10.00  9.00  8.00
  Atomic Wigner-Seitz radii
   RWIGS  =  -1.00 -1.00 -1.00 -1.00 -1.00
  virtual crystal weights 
   VCA    =   1.00  1.00  1.00  1.00  1.00
   NELECT =     750.0000    total number of electrons
   NUPDOWN=      -1.0000    fix difference up-down

 DOS related values:
   EMIN   =  10.00;   EMAX   =-10.00  energy-range for DOS
   EFERMI =   0.00
   ISMEAR =     1;   SIGMA  =   0.10  broadening in eV -4-tet -1-fermi 0-gaus

 Electronic relaxation 2 (details)
   IALGO  =     68    algorithm
   LDIAG  =      T    sub-space diagonalisation (order eigenvalues)
   LSUBROT=      F    optimize rotation matrix (better conditioning)
   TURBO    =      0    0=normal 1=particle mesh
   IRESTART =      0    0=no restart 2=restart with 2 vectors
   NREBOOT  =      0    no. of reboots
   NMIN     =      0    reboot dimension
   EREF     =   0.00    reference energy to select bands
   IMIX   =      4    mixing-type and parameters
     AMIX     =   0.40;   BMIX     =  1.00
     AMIX_MAG =   1.60;   BMIX_MAG =  1.00
     AMIN     =   0.10
     WC   =   100.;   INIMIX=   1;  MIXPRE=   1;  MAXMIX= -45

 Intra band minimization:
   WEIMIN = 0.0010     energy-eigenvalue tresh-hold
   EBREAK =  0.48E-09  absolut break condition
   DEPER  =   0.30     relativ break condition  

   TIME   =   0.40     timestep for ELM

  volume/ion in A,a.u.               =      26.54       179.08
  Fermi-wavevector in a.u.,A,eV,Ry     =   1.157298  2.186975 18.222798  1.339338
  Thomas-Fermi vector in A             =   2.293910
 
 Write flags
   LWAVE        =      F    write WAVECAR
   LDOWNSAMPLE  =      F    k-point downsampling of WAVECAR
   LCHARG       =      F    write CHGCAR
   LVTOT        =      F    write LOCPOT, total local potential
   LVHAR        =      F    write LOCPOT, Hartree potential only
   LELF         =      F    write electronic localiz. function (ELF)
   LORBIT       =     11    0 simple, 1 ext, 2 COOP (PROOUT), +10 PAW based schemes


 Dipole corrections
   LMONO  =      F    monopole corrections only (constant potential shift)
   LDIPOL =      F    correct potential (dipole corrections)
   IDIPOL =      0    1-x, 2-y, 3-z, 4-all directions 
   EPSILON=  1.0000000 bulk dielectric constant

 Exchange correlation treatment:
   GGA     =    PE    GGA type
   LEXCH   =     8    internal setting for exchange type
   VOSKOWN=      0    Vosko Wilk Nusair interpolation
   LHFCALC =     F    Hartree Fock is set to
   LHFONE  =     F    Hartree Fock one center treatment
   AEXX    =    0.0000 exact exchange contribution

 Linear response parameters
   LEPSILON=     F    determine dielectric tensor
   LRPA    =     F    only Hartree local field effects (RPA)
   LNABLA  =     F    use nabla operator in PAW spheres
   LVEL    =     F    velocity operator in full k-point grid
   LINTERFAST=   F  fast interpolation
   KINTER  =     0    interpolate to denser k-point grid
   CSHIFT  =0.1000    complex shift for real part using Kramers Kronig
   OMEGAMAX=  -1.0    maximum frequency
   DEG_THRESHOLD= 0.2000000E-02 threshold for treating states as degnerate
   RTIME   =   -0.100 relaxation time in fs
  (WPLASMAI=    0.000 imaginary part of plasma frequency in eV, 0.658/RTIME)
   DFIELD  = 0.0000000 0.0000000 0.0000000 field for delta impulse in time
 
 Orbital magnetization related:
   ORBITALMAG=     F  switch on orbital magnetization
   LCHIMAG   =     F  perturbation theory with respect to B field
   DQ        =  0.001000  dq finite difference perturbation B field
   LLRAUG    =     F  two centre corrections for induced B field



--------------------------------------------------------------------------------------------------------


 conjugate gradient relaxation of ions
   using selective dynamics as specified on POSCAR
 charge density and potential will be updated during run
 spin polarized calculation
 RMM-DIIS sequential band-by-band and
  variant of blocked Davidson during initial phase
 perform sub-space diagonalisation
    before iterative eigenvector-optimisation
 modified Broyden-mixing scheme, WC =      100.0
 initial mixing is a Kerker type mixing with AMIX =  0.4000 and BMIX =      1.0000
 Hartree-type preconditioning will be used
 using additional bands          149
 real space projection scheme for non local part
 use partial core corrections
 calculate Harris-corrections to forces 
   (improved forces if not selfconsistent)
 use gradient corrections 
 use of overlap-Matrix (Vanderbilt PP)
 Methfessel and Paxton  Order N= 1 SIGMA  =   0.10


--------------------------------------------------------------------------------------------------------


  energy-cutoff  :      500.00
  volume of cell :     2123.00
      direct lattice vectors                 reciprocal lattice vectors
     8.973735661 -5.189548305  0.004462647     0.111590818  0.000267082 -0.000105808
    -0.024769024 10.342499943 -0.016088076     0.055992901  0.096822670  0.000097874
     0.021804810 -0.035764815 22.906278653     0.000017586  0.000067951  0.043656242

  length of vectors
    10.366260813 10.342542115 22.906316952     0.111591188  0.111847414  0.043656299


 
 k-points in units of 2pi/SCALE and weight: Automatic mesh                          
   0.00000000  0.00000000  0.00000000       1.000
 
 k-points in reciprocal lattice and weights: Automatic mesh                          
   0.00000000  0.00000000  0.00000000       1.000
 
 position of ions in fractional coordinates (direct lattice) 
   0.51936672  0.95187028  0.28333225
   0.42929498  0.52175182  0.18241792
   0.27170519  0.96301000  0.27987056
   0.18673578  0.27838280  0.47125853
   0.68681692  0.53101984  0.47272426
   0.77186348  0.45325328  0.28152203
   0.93588054  0.53009301  0.18753627
   0.84774853  0.62137919  0.09343029
   0.43240446  0.27507137  0.46921117
   0.92810012  0.28063893  0.47343998
   0.83549319  0.10743300  0.37749698
   0.17953282  0.53319144  0.47415718
   0.01451578  0.94930162  0.27637780
   0.35244901  0.36176012  0.37730703
   0.34630083  0.87086406  0.08953101
   0.59028719  0.10599562  0.37727336
   0.59037523  0.35598276  0.09426948
   0.01717074  0.44287534  0.27838564
   0.85073395  0.35517593  0.09276688
   0.01397593  0.70397989  0.27905882
   0.35200394  0.61842532  0.37608371
   0.78033414  0.71204752  0.27894999
   0.51741835  0.19314540  0.28043610
   0.69637732  0.78560518  0.18528358
   0.60884558  0.87425558  0.09166776
   0.92996540  0.02269733  0.46884398
   0.43406226  0.78792216  0.18546157
   0.09292194  0.61144837  0.37449660
   0.68205922  0.27784468  0.47157408
   0.69281754  0.04635841  0.18456429
   0.10121707  0.87090272  0.37557417
   0.18096390  0.79351421  0.18368742
   0.68353128  0.53037484  0.18644980
   0.52920582  0.70873302  0.28095371
   0.18936362  0.03148756  0.47232246
   0.09440410  0.11336479  0.09301403
   0.10516424  0.60892936  0.09155093
   0.93795744  0.78827068  0.18752849
   0.34361426  0.11416088  0.09598352
   0.84710517  0.61811882  0.37861902
   0.76597333  0.19612721  0.28083866
   0.09321456  0.35961053  0.37515397
   0.94163759  0.03708398  0.18484598
   0.10000831  0.87856512  0.09101170
   0.51340293  0.43809306  0.28032223
   0.68611908  0.77502665  0.46897308
   0.60019949  0.61800285  0.37786404
   0.34560664  0.61217173  0.09332320
   0.67748213  0.28331795  0.18796527
   0.92915000  0.77804497  0.47007349
   0.17756442  0.27462229  0.18338144
   0.94937918  0.28622722  0.18716911
   0.36012775  0.87350233  0.37405507
   0.84210584  0.86498788  0.36964292
   0.59394769  0.61026369  0.09162789
   0.44881666  0.79815529  0.46869530
   0.43667246  0.04696475  0.18734866
   0.68447345  0.04981841  0.47249963
   0.84518973  0.35923536  0.37704676
   0.43899062  0.52678126  0.46844156
   0.18837216  0.79044464  0.47106757
   0.34347587  0.35806266  0.09602583
   0.35214923  0.11235889  0.37797862
   0.77885148  0.95128417  0.28110063
   0.25954945  0.19570218  0.27680590
   0.17790595  0.04025689  0.18381115
   0.26320811  0.70171656  0.27901351
   0.86043101  0.86855657  0.09272134
   0.43755961  0.04274237  0.47001800
   0.25806439  0.43781786  0.27815060
   0.43022034  0.27294502  0.18687510
   0.91623973  0.51105013  0.47240835
   0.10506799  0.36408338  0.09614422
   0.59516905  0.11484357  0.09128271
   0.86733156  0.12039782  0.09319659
   0.17852364  0.52574843  0.18460190
   0.10155287  0.11480766  0.37114035
   0.59499924  0.35324328  0.37949071
   0.59911611  0.86904100  0.37440880
   0.01325948  0.18917757  0.27548164
 
 position of ions in cartesian coordinates  (Angst):
   4.64326076  7.13930634  6.47709138
   3.84343400  3.16184695  4.17203754
   2.42046024  8.53989419  6.39651261
   1.67909798  1.89324528 10.79113393
   6.16046829  1.91089625 10.82287549
   6.92141077  0.67208056  6.44477474
   8.38930390  0.61898244  4.29140633
   7.59411745  2.02384082  2.13392664
   3.88370112  0.58416057 10.74538601
   8.33189726 -1.93084476 10.84437492
   7.50306531 -3.23820756  8.64905109
   1.60821230  4.56588006 10.85339958
   0.11277389  9.73293701  6.31557925
   3.16205088  1.89895854  8.63845274
   3.08799388  7.20656449  2.03835725
   5.30268218 -1.98055727  8.64285779
   5.29110948  0.61459931  2.15627043
   0.14918627  4.48137336  6.36973077
   7.62748699 -0.74483571  2.12302638
   0.11406424  7.19840271  6.38093584
   3.15167299  4.55587180  8.60629985
   6.99095799  3.30479317  6.38173313
   4.64450635 -0.69759099  6.42294915
   6.23368741  4.50461117  4.23462618
   5.44396366  5.87907628  2.08841919
   8.35492451 -4.60812133 10.74325569
   3.87968790  5.88986479  4.23749539
   0.82687776  5.82828801  8.56890112
   6.12401979 -0.68283641 10.80058119
   6.22003761 -3.12254915  4.23002693
   0.89491314  8.46860809  8.58944711
   1.60827290  7.26123025  4.19563670
   6.12475766  1.93151484  4.26538863
   4.73752465  4.57368385  6.42656341
   1.70881804 -0.67394413 10.81948834
   0.84637767  0.67923402  2.12920269
   0.93062979  5.74882266  2.08776402
   8.40154645  3.27840712  4.28708388
   3.08276878 -0.60592678  2.19832207
   7.59464343  1.98325941  8.66658883
   6.87490792 -1.95665406  6.43323163
   0.83575581  3.22211307  8.58801188
   8.45311884 -4.50974368  4.23773917
   0.87767147  8.56430666  2.07105119
   4.60240338  1.85662250  6.41638208
   6.14808048  4.43829226 10.73302132
   5.37896349  3.26341596  8.64819494
   3.08825460  4.53450601  2.12938092
   6.07662663 -0.59233293  4.30405009
   8.32892490  3.20824914 10.75926363
   1.59061262  1.91224331  4.19696056
   8.51646941 -1.97323815  4.28697974
   3.21821161  7.15191949  8.55576383
   7.54347032  4.56276793  8.45698582
   5.31681190  3.22605489  2.09168668
   4.01801231  5.90900252 10.72522719
   3.92150508 -1.78710038  4.29265377
   6.15135263 -3.05376000 10.82546138
   7.58383278 -0.68424623  8.63473044
   3.93655217  3.15331838 10.72373711
   1.68109494  7.18075963 10.77852904
   3.07548665  1.91734404  2.19536658
   3.16555287 -0.67894195  8.65784751
   6.97177424  5.78671564  6.42714083
   2.33031652  0.66720542  6.33860278
   1.59949180 -0.51346860  4.21057559
   2.35066297  5.88159344  6.38104644
   7.70178888  4.51448185  2.11376721
   3.93573425 -1.84548389 10.76762835
   2.31102231  3.17894556  6.36550312
   3.85799779  0.58360108  4.27814195
   8.21973572  0.51376996 10.81698445
   0.93593079  3.21683832  2.19691778
   5.34003560 -1.90415370  2.09175562
   7.78225415 -3.25917774  2.13672076
   1.59302686  4.50449381  4.22088099
   0.91655758  0.64711093  8.50005054
   5.33889110  0.55206894  8.68969224
   5.36294825  5.86552385  8.56500470
   0.12030815  1.87790575  6.30727486
 


--------------------------------------------------------------------------------------------------------


 k-point  1 :   0.0000 0.0000 0.0000  plane waves:   53823

 maximum and minimum number of plane-waves per node :      3370     3358

 maximum number of plane-waves:     53823
 maximum index in each direction: 
   IXMAX=   18   IYMAX=   18   IZMAX=   41
   IXMIN=  -18   IYMIN=  -18   IZMIN=  -41


 real space projection operators:
  total allocation   :      75889.55 KBytes
  max/ min on nodes  :       4764.09       4723.45


 parallel 3D FFT for wavefunctions:
    minimum data exchange during FFTs selected (reduces bandwidth)
 parallel 3D FFT for charge:
    minimum data exchange during FFTs selected (reduces bandwidth)


 total amount of memory used by VASP MPI-rank0    90148. kBytes
=======================================================================

   base      :      30000. kBytes
   nonlr-proj:      15985. kBytes
   fftplans  :       7275. kBytes
   grid      :      22246. kBytes
   one-center:        155. kBytes
   wavefun   :      14487. kBytes
 
     INWAV:  cpu time    0.0000: real time    0.0000
 Broyden mixing: mesh for mixing (old mesh)
   NGX = 37   NGY = 37   NGZ = 83
  (NGX  =160   NGY  =160   NGZ  =336)
  gives a total of 113627 points

 initial charge density was supplied:
 charge density of overlapping atoms calculated
 number of electron     750.0000000 magnetization     146.0000000
 keeping initial charge density in first step


--------------------------------------------------------------------------------------------------------


 Maximum index for non-local projection operator          524
 Maximum index for augmentation-charges         1027 (set IRDMAX)


--------------------------------------------------------------------------------------------------------


 First call to EWALD:  gamma=   0.138
 Maximum number of real-space cells 4x 4x 2
 Maximum number of reciprocal cells 2x 2x 5

    FEWALD:  cpu time    0.0025: real time    0.0025


--------------------------------------- Iteration      1(   1)  ---------------------------------------


    POTLOK:  cpu time    0.2399: real time    0.2429
    SETDIJ:  cpu time    0.0253: real time    0.0255
     EDDAV:  cpu time   11.3471: real time   11.4284
       DOS:  cpu time    0.0010: real time    0.0011
    --------------------------------------------
      LOOP:  cpu time   11.6134: real time   11.6979

 eigenvalue-minimisations  :  2096
 total energy-change (2. order) : 0.6749869E+04  (-0.3126199E+05)
 number of electron     750.0000000 magnetization     146.0000000
 augmentation part      750.0000000 magnetization     146.0000000

 Free energy of the ion-electron system (eV)
  ---------------------------------------------------
  alpha Z        PSCENC =      1954.98486897
  Ewald energy   TEWEN  =    237916.96516597
  -Hartree energ DENC   =   -304107.35292452
  -exchange      EXHF   =         0.00000000
  -V(xc)+E(xc)   XCENC  =       366.92922788
  PAW double counting   =     59714.37569140   -60148.93492270
  entropy T*S    EENTRO =         0.01455185
  eigenvalues    EBANDS =      6942.36893570
  atomic energy  EATOM  =     64110.51833355
  Solvation  Ediel_sol  =         0.00000000
  ---------------------------------------------------
  free energy    TOTEN  =      6749.86892810 eV

  energy without entropy =     6749.85437625  energy(sigma->0) =     6749.86407748


--------------------------------------------------------------------------------------------------------




--------------------------------------- Iteration      1(   2)  ---------------------------------------


     EDDAV:  cpu time   11.4908: real time   11.5984
       DOS:  cpu time    0.0013: real time    0.0013
    --------------------------------------------
      LOOP:  cpu time   11.4921: real time   11.5997

 eigenvalue-minimisations  :  2096
 total energy-change (2. order) :-0.6368747E+04  (-0.5821947E+04)
 number of electron     750.0000000 magnetization     146.0000000
 augmentation part      750.0000000 magnetization     146.0000000

 Free energy of the ion-electron system (eV)
  ---------------------------------------------------
  alpha Z        PSCENC =      1954.98486897
  Ewald energy   TEWEN  =    237916.96516597
  -Hartree energ DENC   =   -304107.35292452
  -exchange      EXHF   =         0.00000000
  -V(xc)+E(xc)   XCENC  =       366.92922788
  PAW double counting   =     59714.37569140   -60148.93492270
  entropy T*S    EENTRO =        -0.01677875
  eigenvalues    EBANDS =       573.65313319
  atomic energy  EATOM  =     64110.51833355
  Solvation  Ediel_sol  =         0.00000000
  ---------------------------------------------------
  free energy    TOTEN  =       381.12179499 eV

  energy without entropy =      381.13857373  energy(sigma->0) =      381.12738790


--------------------------------------------------------------------------------------------------------




--------------------------------------- Iteration      1(   3)  ---------------------------------------


     EDDAV:  cpu time   12.0455: real time   12.1208
       DOS:  cpu time    0.0011: real time    0.0011
    --------------------------------------------
      LOOP:  cpu time   12.0466: real time   12.1220

 eigenvalue-minimisations  :  2276
 total energy-change (2. order) :-0.8595233E+03  (-0.7008332E+03)
 number of electron     750.0000000 magnetization     146.0000000
 augmentation part      750.0000000 magnetization     146.0000000

 Free energy of the ion-electron system (eV)
  ---------------------------------------------------
  alpha Z        PSCENC =      1954.98486897
  Ewald energy   TEWEN  =    237916.96516597
  -Hartree energ DENC   =   -304107.35292452
  -exchange      EXHF   =         0.00000000
  -V(xc)+E(xc)   XCENC  =       366.92922788
  PAW double counting   =     59714.37569140   -60148.93492270
  entropy T*S    EENTRO =        -0.01650261
  eigenvalues    EBANDS =      -285.87044264
  atomic energy  EATOM  =     64110.51833355
  Solvation  Ediel_sol  =         0.00000000
  ---------------------------------------------------
  free energy    TOTEN  =      -478.40150470 eV

  energy without entropy =     -478.38500209  energy(sigma->0) =     -478.39600383


--------------------------------------------------------------------------------------------------------




--------------------------------------- Iteration      1(   4)  ---------------------------------------


     EDDAV:  cpu time   12.3454: real time   12.4319
       DOS:  cpu time    0.0013: real time    0.0013
    --------------------------------------------
      LOOP:  cpu time   12.3467: real time   12.4332

 eigenvalue-minimisations  :  2336
 total energy-change (2. order) :-0.7037019E+02  (-0.6663880E+02)
 number of electron     750.0000000 magnetization     146.0000000
 augmentation part      750.0000000 magnetization     146.0000000

 Free energy of the ion-electron system (eV)
  ---------------------------------------------------
  alpha Z        PSCENC =      1954.98486897
  Ewald energy   TEWEN  =    237916.96516597
  -Hartree energ DENC   =   -304107.35292452
  -exchange      EXHF   =         0.00000000
  -V(xc)+E(xc)   XCENC  =       366.92922788
  PAW double counting   =     59714.37569140   -60148.93492270
  entropy T*S    EENTRO =        -0.01323623
  eigenvalues    EBANDS =      -356.24389778
  atomic energy  EATOM  =     64110.51833355
  Solvation  Ediel_sol  =         0.00000000
  ---------------------------------------------------
  free energy    TOTEN  =      -548.77169347 eV

  energy without entropy =     -548.75845724  energy(sigma->0) =     -548.76728139


--------------------------------------------------------------------------------------------------------




--------------------------------------- Iteration      1(   5)  ---------------------------------------


     EDDAV:  cpu time   12.4633: real time   12.5445
       DOS:  cpu time    0.0011: real time    0.0012
    CHARGE:  cpu time    0.2916: real time    0.2932
    MIXING:  cpu time    0.0080: real time    0.0088
    --------------------------------------------
      LOOP:  cpu time   12.7641: real time   12.8477

 eigenvalue-minimisations  :  2384
 total energy-change (2. order) :-0.1791197E+01  (-0.1783614E+01)
 number of electron     750.0000013 magnetization     141.2562262
 augmentation part      332.7898215 magnetization     112.0152602

 Broyden mixing:
  rms(total) = 0.10223E+02    rms(broyden)= 0.10223E+02
  rms(prec ) = 0.10585E+02
  weight for this iteration     100.00

 Free energy of the ion-electron system (eV)
  ---------------------------------------------------
  alpha Z        PSCENC =      1954.98486897
  Ewald energy   TEWEN  =    237916.96516597
  -Hartree energ DENC   =   -304107.35292452
  -exchange      EXHF   =         0.00000000
  -V(xc)+E(xc)   XCENC  =       366.92922788
  PAW double counting   =     59714.37569140   -60148.93492270
  entropy T*S    EENTRO =        -0.01308192
  eigenvalues    EBANDS =      -358.03524918
  atomic energy  EATOM  =     64110.51833355
  Solvation  Ediel_sol  =         0.00000000
  ---------------------------------------------------
  free energy    TOTEN  =      -550.56289055 eV

  energy without entropy =     -550.54980863  energy(sigma->0) =     -550.55852991


--------------------------------------------------------------------------------------------------------




--------------------------------------- Iteration      1(   6)  ---------------------------------------


    POTLOK:  cpu time    0.2378: real time    0.2394
    SETDIJ:  cpu time    0.0241: real time    0.0244
    EDDIAG:  cpu time    1.4547: real time    1.4644
  RMM-DIIS:  cpu time    4.6351: real time    4.6629
    ORTHCH:  cpu time    0.6078: real time    0.6108
       DOS:  cpu time    0.0012: real time    0.0012
    CHARGE:  cpu time    0.2876: real time    0.2889
    MIXING:  cpu time    0.0081: real time    0.0085
    --------------------------------------------
      LOOP:  cpu time    7.2564: real time    7.3004

 eigenvalue-minimisations  :  2106
 total energy-change (2. order) :-0.2122800E+03  (-0.9624644E+02)
 number of electron     750.0000016 magnetization     138.9956468
 augmentation part      383.5796969 magnetization     122.6378156

 Broyden mixing:
  rms(total) = 0.19494E+02    rms(broyden)= 0.19494E+02
  rms(prec ) = 0.22174E+02
  weight for this iteration     100.00

 eigenvalues of (default mixing * dielectric matrix)
  average eigenvalue GAMMA=   0.2262
  0.2262

 Free energy of the ion-electron system (eV)
  ---------------------------------------------------
  alpha Z        PSCENC =      1954.98486897
  Ewald energy   TEWEN  =    237916.96516597
  -Hartree energ DENC   =   -303343.05538941
  -exchange      EXHF   =         0.00000000
  -V(xc)+E(xc)   XCENC  =       323.46891866
  PAW double counting   =     65325.95192095   -65597.89087691
  entropy T*S    EENTRO =         0.00835801
  eigenvalues    EBANDS =     -1453.79420765
  atomic energy  EATOM  =     64110.51833355
  Solvation  Ediel_sol  =         0.00000000
  ---------------------------------------------------
  free energy    TOTEN  =      -762.84290786 eV

  energy without entropy =     -762.85126587  energy(sigma->0) =     -762.84569387


--------------------------------------------------------------------------------------------------------




--------------------------------------- Iteration      1(   7)  ---------------------------------------


    POTLOK:  cpu time    0.2296: real time    0.2310
    SETDIJ:  cpu time    0.0246: real time    0.0247
    EDDIAG:  cpu time    1.4545: real time    1.4632
  RMM-DIIS:  cpu time    4.6063: real time    4.6338
    ORTHCH:  cpu time    0.6077: real time    0.6108
       DOS:  cpu time    0.0012: real time    0.0012
    CHARGE:  cpu time    0.2881: real time    0.2892
    MIXING:  cpu time    0.0080: real time    0.0081
    --------------------------------------------
      LOOP:  cpu time    7.2201: real time    7.2622

 eigenvalue-minimisations  :  2100
 total energy-change (2. order) : 0.1479824E+03  (-0.2331941E+02)
 number of electron     750.0000011 magnetization     137.1927274
 augmentation part      371.4808935 magnetization     116.2597884

 Broyden mixing:
  rms(total) = 0.14531E+02    rms(broyden)= 0.14530E+02
  rms(prec ) = 0.19884E+02
  weight for this iteration     100.00

 eigenvalues of (default mixing * dielectric matrix)
  average eigenvalue GAMMA=   0.2134
  0.2134  0.2134

 Free energy of the ion-electron system (eV)
  ---------------------------------------------------
  alpha Z        PSCENC =      1954.98486897
  Ewald energy   TEWEN  =    237916.96516597
  -Hartree energ DENC   =   -303141.66981926
  -exchange      EXHF   =         0.00000000
  -V(xc)+E(xc)   XCENC  =       324.26022470
  PAW double counting   =     66424.85508155   -66825.06124187
  entropy T*S    EENTRO =         0.00480880
  eigenvalues    EBANDS =     -1379.71797912
  atomic energy  EATOM  =     64110.51833355
  Solvation  Ediel_sol  =         0.00000000
  ---------------------------------------------------
  free energy    TOTEN  =      -614.86055672 eV

  energy without entropy =     -614.86536552  energy(sigma->0) =     -614.86215965


--------------------------------------------------------------------------------------------------------




--------------------------------------- Iteration      1(   8)  ---------------------------------------


    POTLOK:  cpu time    0.2300: real time    0.2315
    SETDIJ:  cpu time    0.0245: real time    0.0246
    EDDIAG:  cpu time    1.4465: real time    1.4552
  RMM-DIIS:  cpu time    4.6183: real time    4.6520
    ORTHCH:  cpu time    0.6093: real time    0.6124
       DOS:  cpu time    0.0013: real time    0.0013
    CHARGE:  cpu time    0.2920: real time    0.2932
    MIXING:  cpu time    0.0077: real time    0.0077
    --------------------------------------------
      LOOP:  cpu time    7.2295: real time    7.2780

 eigenvalue-minimisations  :  2099
 total energy-change (2. order) :-0.3984820E+02  (-0.1082902E+02)
 number of electron     750.0000018 magnetization     134.4874871
 augmentation part      361.1241827 magnetization     110.1416453

 Broyden mixing:
  rms(total) = 0.17172E+02    rms(broyden)= 0.17172E+02
  rms(prec ) = 0.23790E+02
  weight for this iteration     100.00

 eigenvalues of (default mixing * dielectric matrix)
  average eigenvalue GAMMA=   0.2185
  0.2938  0.2938  0.0678

 Free energy of the ion-electron system (eV)
  ---------------------------------------------------
  alpha Z        PSCENC =      1954.98486897
  Ewald energy   TEWEN  =    237916.96516597
  -Hartree energ DENC   =   -303208.30510251
  -exchange      EXHF   =         0.00000000
  -V(xc)+E(xc)   XCENC  =       327.54192780
  PAW double counting   =     67178.69882791   -67634.52976876
  entropy T*S    EENTRO =         0.02109357
  eigenvalues    EBANDS =     -1300.60410015
  atomic energy  EATOM  =     64110.51833355
  Solvation  Ediel_sol  =         0.00000000
  ---------------------------------------------------
  free energy    TOTEN  =      -654.70875365 eV

  energy without entropy =     -654.72984722  energy(sigma->0) =     -654.71578484


--------------------------------------------------------------------------------------------------------




--------------------------------------- Iteration      1(   9)  ---------------------------------------


    POTLOK:  cpu time    0.2291: real time    0.2306
    SETDIJ:  cpu time    0.0245: real time    0.0246
    EDDIAG:  cpu time    1.4554: real time    1.4644
  RMM-DIIS:  cpu time    4.5936: real time    4.6209
    ORTHCH:  cpu time    0.6084: real time    0.6116
       DOS:  cpu time    0.0012: real time    0.0012
    CHARGE:  cpu time    0.2897: real time    0.2909
    MIXING:  cpu time    0.0074: real time    0.0075
    --------------------------------------------
      LOOP:  cpu time    7.2092: real time    7.2517

 eigenvalue-minimisations  :  2103
 total energy-change (2. order) : 0.7075235E+02  (-0.1189493E+02)
 number of electron     750.0000025 magnetization     130.6224874
 augmentation part      363.7910820 magnetization     102.5054547

 Broyden mixing:
  rms(total) = 0.15201E+02    rms(broyden)= 0.15201E+02
  rms(prec ) = 0.17131E+02
  weight for this iteration     100.00

 eigenvalues of (default mixing * dielectric matrix)
  average eigenvalue GAMMA=   0.2510
  0.4076  0.4076  0.1137  0.0750

 Free energy of the ion-electron system (eV)
  ---------------------------------------------------
  alpha Z        PSCENC =      1954.98486897
  Ewald energy   TEWEN  =    237916.96516597
  -Hartree energ DENC   =   -303473.96303945
  -exchange      EXHF   =         0.00000000
  -V(xc)+E(xc)   XCENC  =       329.32523596
  PAW double counting   =     68206.46242704   -68688.56015218
  entropy T*S    EENTRO =         0.00125340
  eigenvalues    EBANDS =      -939.69049285
  atomic energy  EATOM  =     64110.51833355
  Solvation  Ediel_sol  =         0.00000000
  ---------------------------------------------------
  free energy    TOTEN  =      -583.95639958 eV

  energy without entropy =     -583.95765298  energy(sigma->0) =     -583.95681738


--------------------------------------------------------------------------------------------------------




--------------------------------------- Iteration      1(  10)  ---------------------------------------


    POTLOK:  cpu time    0.2287: real time    0.2302
    SETDIJ:  cpu time    0.0247: real time    0.0248
    EDDIAG:  cpu time    1.4598: real time    1.4690
  RMM-DIIS:  cpu time    4.6130: real time    4.6403
    ORTHCH:  cpu time    0.6077: real time    0.6109
       DOS:  cpu time    0.0012: real time    0.0012
    CHARGE:  cpu time    0.2908: real time    0.2920
    MIXING:  cpu time    0.0084: real time    0.0084
    --------------------------------------------
      LOOP:  cpu time    7.2343: real time    7.2768

 eigenvalue-minimisations  :  2098
 total energy-change (2. order) : 0.6786488E+02  (-0.1506371E+02)
 number of electron     750.0000008 magnetization     126.9979882
 augmentation part      367.6400188 magnetization      96.1760899

 Broyden mixing:
  rms(total) = 0.10860E+02    rms(broyden)= 0.10859E+02
  rms(prec ) = 0.13145E+02
  weight for this iteration     100.00

 eigenvalues of (default mixing * dielectric matrix)
  average eigenvalue GAMMA=   0.3066
  0.5823  0.5823  0.1835  0.1177  0.0673

 Free energy of the ion-electron system (eV)
  ---------------------------------------------------
  alpha Z        PSCENC =      1954.98486897
  Ewald energy   TEWEN  =    237916.96516597
  -Hartree energ DENC   =   -303480.56575132
  -exchange      EXHF   =         0.00000000
  -V(xc)+E(xc)   XCENC  =       338.07634333
  PAW double counting   =     69579.40040143   -70080.78666003
  entropy T*S    EENTRO =        -0.01698069
  eigenvalues    EBANDS =      -854.66723585
  atomic energy  EATOM  =     64110.51833355
  Solvation  Ediel_sol  =         0.00000000
  ---------------------------------------------------
  free energy    TOTEN  =      -516.09151464 eV

  energy without entropy =     -516.07453396  energy(sigma->0) =     -516.08585441


--------------------------------------------------------------------------------------------------------




--------------------------------------- Iteration      1(  11)  ---------------------------------------


    POTLOK:  cpu time    0.2295: real time    0.2310
    SETDIJ:  cpu time    0.0244: real time    0.0245
    EDDIAG:  cpu time    1.4564: real time    1.4659
  RMM-DIIS:  cpu time    4.6107: real time    4.6376
    ORTHCH:  cpu time    0.6114: real time    0.6147
       DOS:  cpu time    0.0012: real time    0.0012
    CHARGE:  cpu time    0.2944: real time    0.2957
    MIXING:  cpu time    0.0090: real time    0.0091
    --------------------------------------------
      LOOP:  cpu time    7.2370: real time    7.2796

 eigenvalue-minimisations  :  2100
 total energy-change (2. order) : 0.1701153E+02  (-0.1267622E+02)
 number of electron     750.0000021 magnetization     123.5714416
 augmentation part      363.5013974 magnetization      93.1819492

 Broyden mixing:
  rms(total) = 0.12111E+02    rms(broyden)= 0.12111E+02
  rms(prec ) = 0.13520E+02
  weight for this iteration     100.00

 eigenvalues of (default mixing * dielectric matrix)
  average eigenvalue GAMMA=   0.3402
  0.9333  0.5968  0.1861  0.1294  0.1294  0.0663

 Free energy of the ion-electron system (eV)
  ---------------------------------------------------
  alpha Z        PSCENC =      1954.98486897
  Ewald energy   TEWEN  =    237916.96516597
  -Hartree energ DENC   =   -303564.93005148
  -exchange      EXHF   =         0.00000000
  -V(xc)+E(xc)   XCENC  =       346.78973013
  PAW double counting   =     70750.44496819   -71303.88149661
  entropy T*S    EENTRO =        -0.01339220
  eigenvalues    EBANDS =      -709.95811133
  atomic energy  EATOM  =     64110.51833355
  Solvation  Ediel_sol  =         0.00000000
  ---------------------------------------------------
  free energy    TOTEN  =      -499.07998482 eV

  energy without entropy =     -499.06659262  energy(sigma->0) =     -499.07552076


--------------------------------------------------------------------------------------------------------




--------------------------------------- Iteration      1(  12)  ---------------------------------------


    POTLOK:  cpu time    0.2300: real time    0.2315
    SETDIJ:  cpu time    0.0242: real time    0.0243
[...]
   0.319E+01 0.414E+02 -.144E+04   -.318E+01 -.412E+02 0.144E+04   -.180E-01 -.316E+00 0.276E-01   -.101E-03 0.399E-03 0.348E-03
   0.800E+02 0.600E+02 -.274E+04   -.796E+02 -.591E+02 0.274E+04   -.384E+00 -.873E+00 0.107E+01   0.221E-03 0.149E-03 0.327E-04
   0.723E+01 0.312E+02 -.275E+04   -.705E+01 -.311E+02 0.275E+04   -.210E+00 -.141E+00 0.101E+01   -.729E-04 -.653E-04 0.239E-03
   -.177E+02 -.219E+02 0.276E+04   0.172E+02 0.219E+02 -.276E+04   0.199E+00 -.140E+00 -.180E+01   0.253E-03 -.222E-03 0.374E-03
   -.174E+02 -.470E+02 -.122E+04   0.176E+02 0.466E+02 0.122E+04   -.210E+00 0.413E+00 0.366E-01   -.380E-04 0.323E-03 0.253E-03
   0.904E+01 -.111E+02 0.158E+01   -.891E+01 0.114E+02 -.107E+01   -.735E-01 -.279E+00 -.556E+00   -.328E-04 0.113E-03 0.220E-03
   0.154E+02 0.498E+02 0.301E+02   -.156E+02 -.492E+02 -.307E+02   0.272E+00 -.661E+00 0.617E+00   0.704E-05 -.561E-04 0.281E-03
   -.489E+02 0.369E+02 0.117E+04   0.493E+02 -.363E+02 -.117E+04   -.430E+00 -.786E+00 -.689E-02   0.124E-03 0.127E-03 0.815E-03
   0.301E+02 -.295E+02 0.407E+02   -.296E+02 0.287E+02 -.409E+02   -.547E+00 0.870E+00 0.196E+00   -.889E-04 0.118E-03 0.286E-03
   0.830E+02 -.152E+02 0.249E+04   -.826E+02 0.149E+02 -.249E+04   -.385E+00 0.306E+00 -.198E+01   -.276E-03 0.132E-03 0.272E-03
   -.498E+02 -.425E+02 -.246E+04   0.493E+02 0.418E+02 0.246E+04   0.516E+00 0.790E+00 0.225E+01   -.218E-04 0.276E-05 0.226E-03
   0.429E+02 -.254E+02 0.367E+02   -.431E+02 0.253E+02 -.370E+02   0.153E+00 0.827E-01 0.287E+00   0.423E-04 -.268E-03 0.269E-03
   0.833E+01 -.362E+01 0.119E+04   -.852E+01 0.362E+01 -.119E+04   0.600E+00 0.411E+00 -.241E+00   0.259E-03 -.113E-03 0.621E-03
   -.743E+01 0.475E+02 -.247E+04   0.750E+01 -.473E+02 0.247E+04   -.984E-01 -.238E+00 0.208E+01   -.122E-03 0.250E-04 -.611E-04
   0.188E+02 -.192E+02 0.245E+04   -.184E+02 0.190E+02 -.245E+04   -.864E-01 0.485E+00 -.235E+01   -.288E-03 -.285E-03 0.490E-03
   -.400E+02 0.287E+02 0.247E+04   0.395E+02 -.282E+02 -.247E+04   0.252E+00 -.231E+00 -.263E+01   0.238E-03 0.119E-03 0.418E-03
   0.714E+02 -.302E+02 0.248E+04   -.707E+02 0.300E+02 -.248E+04   -.523E+00 -.374E-01 -.251E+01   -.296E-03 0.833E-04 0.338E-03
   -.309E+02 -.342E+02 0.120E+04   0.310E+02 0.336E+02 -.120E+04   0.375E+00 0.517E+00 -.598E-01   -.302E-03 -.231E-03 0.670E-03
   -.317E+02 -.386E+00 -.122E+04   0.313E+02 0.464E+00 0.122E+04   0.342E+00 -.979E-01 0.161E+00   0.247E-03 0.412E-04 0.186E-03
   0.686E+02 0.697E+02 -.127E+04   -.682E+02 -.698E+02 0.127E+04   -.490E+00 0.452E-01 0.696E+00   0.257E-03 0.184E-03 0.159E-03
   0.483E+01 -.747E+02 -.118E+04   -.460E+01 0.746E+02 0.118E+04   -.320E+00 0.171E+00 -.517E+00   -.207E-03 -.110E-03 0.414E-03
   -.322E+02 0.242E+02 0.844E+01   0.326E+02 -.241E+02 -.896E+01   -.389E+00 -.113E+00 0.529E+00   -.720E-04 -.956E-05 0.206E-03
 -----------------------------------------------------------------------------------------------
   0.140E+01 0.359E+00 0.145E+01   0.355E-12 0.973E-12 -.300E-11   -.143E+01 -.375E+00 -.149E+01   -.176E-03 0.174E-03 0.285E-01
 
 
 POSITION                                       TOTAL-FORCE (eV/Angst)
 -----------------------------------------------------------------------------------
      4.63123      7.07174      6.51387        -0.002345      0.019711     -0.025560
      3.84343      3.16185      4.17204        -0.259862      0.215977      0.742377
      2.38075      8.49495      6.44499         0.025732      0.013075      0.001743
      1.67517      1.96105     10.81423        -0.009576      0.029839      0.009042
      6.13881      2.02718     10.80588         0.016606      0.024109     -0.010365
      6.84416      0.64796      6.51882         0.004989     -0.003308     -0.001687
      8.38930      0.61898      4.29141        -0.299024     -0.127212     -0.174111
      7.59412      2.02384      2.13393         0.206899      0.211672     -0.233631
      3.87452      0.59053     10.83268         0.024906      0.011981      0.005841
      8.38704     -1.90219     10.80797         0.011543     -0.006150      0.001795
      7.65674     -3.23270      8.51195         0.003044      0.000424      0.022706
      1.75540      4.67837     10.90350         0.005872      0.003970      0.018225
      0.09280      9.86976      6.44036         0.007167      0.005039     -0.004847
      3.16333      1.86730      8.45535         0.002663      0.021035      0.008174
      3.08799      7.20656      2.03836         0.043811     -0.022992     -0.606025
      5.36155     -1.90243      8.72790         0.013213     -0.003104     -0.006665
      5.29111      0.61460      2.15627        -0.288544      0.313166     -0.553389
      0.19598      4.45425      6.48022         0.013079     -0.008254      0.002000
      7.62749     -0.74484      2.12303         0.063733     -0.088714     -0.431729
      0.14781      7.15139      6.49391        -0.012399      0.022504      0.001972
      3.18983      4.55914      8.53999        -0.000047     -0.000179      0.005733
      6.78765      3.31158      6.52094         0.001356     -0.004489      0.005353
      4.60515     -0.54756      6.46765        -0.015982      0.004811      0.003472
      6.23369      4.50461      4.23463        -0.499060      0.070702      0.067370
      5.44396      5.87908      2.08842         0.392705     -0.551831     -1.314441
      8.32298     -4.65870     10.87509         0.011345      0.014873     -0.016221
      3.87969      5.88986      4.23750        -0.382312     -0.535182      0.611274
      0.87253      5.83474      8.67204         0.005281     -0.006364      0.003414
      6.12136     -0.66547     10.97555         0.007859      0.013477     -0.008337
      6.22004     -3.12255      4.23003         0.430556      0.299976      0.313296
      0.85636      8.50446      8.69729         0.002605      0.007362     -0.022860
      1.60827      7.26123      4.19564         0.333371     -0.341885      0.063902
      6.12476      1.93151      4.26539        -0.227213     -0.284236      0.256305
      4.57180      4.52757      6.42041         0.001903      0.029346      0.007164
      1.67313     -0.67650     10.78448        -0.013127     -0.004266      0.006732
      0.84638      0.67923      2.12920         0.289979     -0.042044      0.300043
      0.93063      5.74882      2.08776        -0.125160     -0.001149      0.313803
      8.40155      3.27841      4.28708         0.042187      0.305056     -0.358105
      3.08277     -0.60593      2.19832        -0.286164      0.312352      0.377083
      7.54868      1.95332      8.67945        -0.000184      0.005397     -0.000710
      6.93020     -1.95197      6.37580        -0.000230      0.010880     -0.005061
      0.91546      3.19041      8.55311        -0.016376      0.025527      0.017722
      8.45312     -4.50974      4.23774        -0.002618      0.236996     -0.121387
      0.87767      8.56431      2.07105        -0.351382      0.105780      0.294959
      4.59075      2.02372      6.36471         0.006862      0.005212      0.012720
      6.03659      4.54770     10.66858         0.013586      0.005799      0.006256
      5.37650      3.22842      8.60941         0.012224      0.018003      0.006519
      3.08825      4.53451      2.12938        -0.130959     -0.390515      0.075466
      6.07663     -0.59233      4.30405         0.133747     -0.076870      0.139987
      8.42665      3.13153     10.73754         0.003060     -0.010874     -0.006185
      1.59061      1.91224      4.19696         0.065423      0.101737      0.375395
      8.51647     -1.97324      4.28698        -0.136882     -0.262257     -0.206281
      3.13452      7.17676      8.71038         0.002793      0.002299      0.008984
      7.53884      4.51226      8.66688         0.000590     -0.001472      0.002326
      5.31681      3.22605      2.09169         0.061298     -0.016356      0.204376
      3.98925      5.88175     10.67376         0.001687     -0.006769      0.011405
      3.92151     -1.78710      4.29265         0.086707      0.109555     -0.579652
      6.06398     -3.35408     10.73838        -0.008494      0.008109     -0.008244
      7.59652     -0.58557      8.69197        -0.003535      0.013984     -0.001416
      3.95176      3.35399     10.72094         0.006279      0.000886      0.020451
      1.69927      7.18632     10.71953        -0.001712     -0.010756     -0.007318
      3.07549      1.91734      2.19537        -0.303210     -0.071005     -0.138136
      3.11362     -0.68125      8.69247        -0.000196     -0.000073      0.005140
      6.84711      5.87515      6.42258         0.003894      0.008603      0.015013
      2.34852      0.81692      6.28290        -0.016526      0.007081      0.003771
      1.59949     -0.51347      4.21058        -0.030095     -0.248660     -0.244842
      2.41421      5.78532      6.38832         0.011052      0.020716      0.000003
      7.70179      4.51448      2.11377         0.045292     -0.083915      0.259167
      3.79579     -2.03736     10.79990        -0.011795      0.017492      0.002639
      2.41145      3.20950      6.40380        -0.007900      0.011333     -0.002565
      3.85800      0.58360      4.27814         0.441701      0.347973     -0.283471
      8.39136      0.73090     10.79516        -0.000190      0.021352      0.004922
      0.93593      3.21684      2.19692         0.257911      0.323930      0.076090
      5.34004     -1.90415      2.09176        -0.276229      0.206708      0.402983
      7.78225     -3.25918      2.13672         0.211781     -0.288885      0.433615
      1.59303      4.50449      4.22088         0.442572     -0.104371     -0.179839
      0.86649      0.71381      8.66480        -0.013707      0.008216     -0.008805
      5.47247      0.70380      8.67292        -0.009323      0.010499      0.000865
      5.42155      5.75859      8.65017        -0.024499      0.006901      0.015193
      0.13241      2.01297      6.34143        -0.004007      0.012713      0.017098
 -----------------------------------------------------------------------------------
    total drift:                               -0.028105     -0.016109     -0.010357


--------------------------------------------------------------------------------------------------------



  FREE ENERGIE OF THE ION-ELECTRON SYSTEM (eV)
  ---------------------------------------------------
  free  energy   TOTEN  =      -536.58744577 eV

  energy  without entropy=     -536.59870936  energy(sigma->0) =     -536.59120030
 
 d Force = 0.1792661E-02[ 0.103E-02, 0.256E-02]  d Energy = 0.1831898E-02-0.392E-04
 d Force = 0.8224305E+02[ 0.822E+02, 0.823E+02]  d Ewald  = 0.8224305E+02 0.644E-06


--------------------------------------------------------------------------------------------------------


    POTLOK:  cpu time    0.2829: real time    0.2842


--------------------------------------------------------------------------------------------------------


 Conjugate gradient step on ions:
 trial-energy change:   -0.001832  1 .order   -0.001793   -0.002556   -0.001030
  (g-gl).g = 0.195E-02      g.g   = 0.218E-02  gl.gl    = 0.351E-02
 g(Force)  = 0.218E-02   g(Stress)= 0.000E+00 ortho     = 0.398E-05
 gamma     =   0.55735
 trial     =   1.17370
 opt step  =   1.81328  (harmonic =   1.96572) maximal distance =0.00844110
 next E    =  -536.587733   (d E  =  -0.00212)


--------------------------------------------------------------------------------------------------------


  
 reached required accuracy - stopping structural energy minimisation
     LOOP+:  cpu time  220.7790: real time  222.1080
    4ORBIT:  cpu time    0.0000: real time    0.0000
 


 total charge     
 
# of ion       s       p       d       tot
------------------------------------------
    1        0.738   0.622   8.098   9.458
    2        0.739   0.641   8.091   9.471
    3        0.742   0.625   8.129   9.497
    4        0.722   0.466   8.096   9.284
    5        0.751   0.498   8.091   9.340
    6        0.745   0.630   8.105   9.481
    7        0.714   0.629   8.118   9.461
    8        0.720   0.448   8.097   9.265
    9        0.747   0.481   8.108   9.336
   10        0.724   0.446   8.103   9.273
   11        0.731   0.633   8.113   9.477
   12        0.722   0.456   8.081   9.259
   13        0.756   0.648   8.112   9.516
   14        0.732   0.635   8.116   9.484
   15        0.534   0.404   8.545   9.483
   16        0.552   0.596   8.547   9.695
   17        0.561   0.449   8.543   9.553
   18        0.589   0.619   8.545   9.753
   19        0.548   0.439   8.534   9.521
   20        0.552   0.587   8.553   9.692
   21        0.553   0.592   8.548   9.692
   22        0.562   0.583   8.543   9.689
   23        0.579   0.617   8.551   9.748
   24        0.542   0.559   8.553   9.654
   25        0.544   0.421   8.545   9.509
   26        0.520   0.403   8.535   9.458
   27        0.528   0.557   8.559   9.643
   28        0.543   0.573   8.561   9.677
   29        0.540   0.421   8.547   9.508
   30        0.553   0.577   8.552   9.681
   31        0.570   0.632   8.542   9.743
   32        0.544   0.575   8.568   9.687
   33        0.448   0.433   8.364   9.244
   34        0.475   0.448   8.355   9.278
   35        0.491   0.373   8.348   9.212
   36        0.508   0.395   8.324   9.227
   37        0.457   0.310   8.346   9.114
   38        0.458   0.443   8.361   9.262
   39        0.496   0.368   8.335   9.200
   40        0.473   0.472   8.349   9.294
   41        0.468   0.442   8.365   9.275
   42        0.451   0.434   8.369   9.255
   43        0.490   0.483   8.356   9.329
   44        0.476   0.338   8.341   9.155
   45        0.481   0.468   8.352   9.301
   46        0.514   0.401   8.344   9.259
   47        0.471   0.462   8.363   9.295
   48        0.472   0.334   8.335   9.140
   49        0.439   0.434   7.255   8.128
   50        0.465   0.357   7.247   8.068
   51        0.474   0.495   7.295   8.265
   52        0.459   0.464   7.283   8.207
   53        0.446   0.441   7.294   8.181
   54        0.437   0.438   7.264   8.140
   55        0.431   0.321   7.227   7.979
   56        0.487   0.399   7.256   8.142
   57        0.441   0.431   7.264   8.136
   58        0.458   0.350   7.242   8.051
   59        0.427   0.420   7.251   8.098
   60        0.439   0.352   7.228   8.019
   61        0.474   0.391   7.255   8.120
   62        0.457   0.362   7.246   8.065
   63        0.445   0.471   6.195   7.111
   64        0.461   0.472   6.190   7.123
   65        0.463   0.482   6.241   7.185
   66        0.453   0.479   6.185   7.117
   67        0.442   0.433   6.154   7.029
   68        0.462   0.381   6.112   6.955
   69        0.466   0.389   6.163   7.018
   70        0.462   0.478   6.220   7.159
   71        0.461   0.489   6.203   7.153
   72        0.450   0.374   6.130   6.954
   73        0.469   0.380   6.188   7.036
   74        0.455   0.349   6.109   6.912
   75        0.468   0.373   6.144   6.985
   76        0.446   0.458   6.208   7.111
   77        0.435   0.463   6.178   7.076
   78        0.438   0.473   6.156   7.066
   79        0.451   0.477   6.201   7.128
   80        0.473   0.494   6.231   7.197
--------------------------------------------------
tot         42.358  37.635 613.747 693.740
 


 magnetization (x)
 
# of ion       s       p       d       tot
------------------------------------------
    1       -0.017  -0.050   0.358   0.290
    2       -0.027  -0.061   0.417   0.329
    3       -0.018  -0.045   0.280   0.216
    4       -0.011  -0.013   0.250   0.226
    5       -0.017  -0.040   0.308   0.251
    6       -0.014  -0.045   0.337   0.279
    7       -0.019  -0.039   0.341   0.283
    8       -0.015  -0.024   0.342   0.302
    9       -0.017  -0.012   0.272   0.242
   10       -0.017  -0.012   0.213   0.183
   11       -0.037  -0.059   0.405   0.309
   12       -0.016  -0.030   0.298   0.252
   13       -0.023  -0.058   0.328   0.248
   14       -0.036  -0.054   0.434   0.345
   15       -0.019  -0.023   0.278   0.236
   16       -0.033  -0.059   0.349   0.257
   17       -0.025  -0.036   0.306   0.245
   18       -0.023  -0.050   0.327   0.254
   19       -0.027  -0.031   0.301   0.244
   20       -0.007  -0.031   0.223   0.186
   21       -0.030  -0.052   0.339   0.257
   22       -0.018  -0.042   0.267   0.208
   23       -0.020  -0.049   0.317   0.249
   24       -0.024  -0.042   0.325   0.260
   25       -0.026  -0.031   0.324   0.266
   26       -0.023  -0.020   0.289   0.246
   27       -0.018  -0.032   0.270   0.219
   28       -0.024  -0.042   0.345   0.279
   29       -0.011  -0.016   0.233   0.205
   30       -0.032  -0.050   0.327   0.245
   31       -0.028  -0.052   0.377   0.297
   32       -0.023  -0.034   0.288   0.230
   33       -0.015  -0.026   0.648   0.607
   34       -0.012  -0.032   0.691   0.648
   35       -0.013  -0.025   0.651   0.614
   36       -0.031  -0.046   0.781   0.705
   37       -0.015  -0.011   0.687   0.660
   38       -0.015  -0.025   0.695   0.655
   39       -0.017  -0.029   0.755   0.709
   40       -0.020  -0.041   0.770   0.709
   41       -0.016  -0.034   0.633   0.584
   42       -0.019  -0.023   0.664   0.622
   43       -0.026  -0.055   0.725   0.644
   44       -0.013  -0.020   0.730   0.697
   45       -0.011  -0.038   0.675   0.626
   46       -0.018  -0.033   0.693   0.642
   47       -0.019  -0.035   0.726   0.671
   48       -0.017  -0.023   0.748   0.708
   49       -0.008  -0.025   1.839   1.806
   50        0.004  -0.014   1.801   1.790
   51       -0.025  -0.062   1.729   1.643
   52       -0.017  -0.041   1.759   1.702
   53       -0.018  -0.037   1.747   1.692
   54       -0.012  -0.028   1.789   1.749
   55        0.003  -0.005   1.871   1.869
   56       -0.012  -0.032   1.758   1.715
   57       -0.011  -0.028   1.786   1.747
   58        0.000  -0.014   1.808   1.794
   59       -0.008  -0.019   1.850   1.823
   60        0.003  -0.003   1.842   1.842
   61       -0.002  -0.026   1.805   1.777
   62       -0.004  -0.019   1.831   1.807
   63        0.001  -0.020   2.812   2.792
   64        0.010  -0.013   2.749   2.746
   65       -0.004  -0.029   2.650   2.617
   66       -0.003  -0.023   2.810   2.784
   67        0.009  -0.008   2.905   2.906
   68        0.020  -0.003   2.986   3.003
   69        0.007  -0.010   2.899   2.896
   70        0.001  -0.025   2.702   2.678
   71       -0.004  -0.028   2.801   2.769
   72        0.016  -0.001   2.939   2.954
   73        0.004  -0.018   2.803   2.788
   74        0.019   0.004   3.019   3.042
   75        0.012  -0.007   2.920   2.925
   76       -0.003  -0.019   2.746   2.724
   77        0.004  -0.011   2.839   2.832
   78        0.007  -0.006   2.929   2.930
   79       -0.002  -0.020   2.789   2.767
   80        0.001  -0.024   2.698   2.675
--------------------------------------------------
tot         -0.978  -2.344  97.548  94.226
 

 total amount of memory used by VASP MPI-rank0    90148. kBytes
=======================================================================

   base      :      30000. kBytes
   nonlr-proj:      15985. kBytes
   fftplans  :       7275. kBytes
   grid      :      22246. kBytes
   one-center:        155. kBytes
   wavefun   :      14487. kBytes
 
  
  
 General timing and accounting informations for this job:
 ========================================================
  
                  Total CPU time used (sec):     5074.905
                            User time (sec):     5068.426
                          System time (sec):        6.479
                         Elapsed time (sec):     5108.769
  
                   Maximum memory used (kb):      698608.
                   Average memory used (kb):           0.
  
                          Minor page faults:      1250498
                          Major page faults:            0
                 Voluntary context switches:         4907
