ML                                      
           1
     8.973736   -5.189548    0.004463
    -0.024769   10.342500   -0.016088
     0.021805   -0.035765   22.906279
   Pt   Pd   Ni   Co   Fe
  14  18  16  14  18
Direct configuration=     1
   0.51936672  0.95187028  0.28333225
   0.42929498  0.52175182  0.18241792
   0.27170519  0.96301000  0.27987056
   0.18673578  0.27838280  0.47125853
   0.68681692  0.53101984  0.47272426
   0.77186348  0.45325328  0.28152203
   0.93588054  0.53009301  0.18753627
   0.84774853  0.62137919  0.09343029
   0.43240446  0.27507137  0.46921117
   0.92810012  0.28063893  0.47343998
   0.83549319  0.10743300  0.37749698
   0.17953282  0.53319144  0.47415718
   0.01451578  0.94930162  0.27637780
   0.35244901  0.36176012  0.37730703
   0.34630083  0.87086406  0.08953101
   0.59028719  0.10599562  0.37727336
   0.59037523  0.35598276  0.09426948
   0.01717074  0.44287534  0.27838564
   0.85073395  0.35517593  0.09276688
   0.01397593  0.70397989  0.27905882
   0.35200394  0.61842532  0.37608371
   0.78033414  0.71204752  0.27894999
   0.51741835  0.19314540  0.28043610
   0.69637732  0.78560518  0.18528358
   0.60884558  0.87425558  0.09166776
   0.92996540  0.02269733  0.46884398
   0.43406226  0.78792216  0.18546157
   0.09292194  0.61144837  0.37449660
   0.68205922  0.27784468  0.47157408
   0.69281754  0.04635841  0.18456429
   0.10121707  0.87090272  0.37557417
   0.18096390  0.79351421  0.18368742
   0.68353128  0.53037484  0.18644980
   0.52920582  0.70873302  0.28095371
   0.18936362  0.03148756  0.47232246
   0.09440410  0.11336479  0.09301403
   0.10516424  0.60892936  0.09155093
   0.93795744  0.78827068  0.18752849
   0.34361426  0.11416088  0.09598352
   0.84710517  0.61811882  0.37861902
   0.76597333  0.19612721  0.28083866
   0.09321456  0.35961053  0.37515397
   0.94163759  0.03708398  0.18484598
   0.10000831  0.87856512  0.09101170
   0.51340293  0.43809306  0.28032223
   0.68611908  0.77502665  0.46897308
   0.60019949  0.61800285  0.37786404
   0.34560664  0.61217173  0.09332320
   0.67748213  0.28331795  0.18796527
   0.92915000  0.77804497  0.47007349
   0.17756442  0.27462229  0.18338144
   0.94937918  0.28622722  0.18716911
   0.36012775  0.87350233  0.37405507
   0.84210584  0.86498788  0.36964292
   0.59394769  0.61026369  0.09162789
   0.44881666  0.79815529  0.46869530
   0.43667246  0.04696475  0.18734866
   0.68447345  0.04981841  0.47249963
   0.84518973  0.35923536  0.37704676
   0.43899062  0.52678126  0.46844156
   0.18837216  0.79044464  0.47106757
   0.34347587  0.35806266  0.09602583
   0.35214923  0.11235889  0.37797862
   0.77885148  0.95128417  0.28110063
   0.25954945  0.19570218  0.27680590
   0.17790595  0.04025689  0.18381115
   0.26320811  0.70171656  0.27901351
   0.86043101  0.86855657  0.09272134
   0.43755961  0.04274237  0.47001800
   0.25806439  0.43781786  0.27815060
   0.43022034  0.27294502  0.18687510
   0.91623973  0.51105013  0.47240835
   0.10506799  0.36408338  0.09614422
   0.59516905  0.11484357  0.09128271
   0.86733156  0.12039782  0.09319659
   0.17852364  0.52574843  0.18460190
   0.10155287  0.11480766  0.37114035
   0.59499924  0.35324328  0.37949071
   0.59911611  0.86904100  0.37440880
   0.01325948  0.18917757  0.27548164
Direct configuration=     2
   0.51955352  0.94024302  0.28099177
   0.42929498  0.52175182  0.18241792
   0.26839059  0.95492981  0.27984866
   0.18112911  0.27756759  0.47231998
   0.68758282  0.53687345  0.47219159
   0.76002694  0.44401619  0.28428777
   0.93588054  0.53009301  0.18753627
   0.84774853  0.62137919  0.09343029
   0.43373466  0.27413819  0.47322902
   0.93304876  0.28087013  0.47409418
   0.84613272  0.11081412  0.37448666
   0.18481364  0.53828526  0.47405364
   0.02174223  0.96472246  0.27734774
   0.35065260  0.36234293  0.37101567
   0.34630083  0.87086406  0.08953101
   0.59350803  0.11210074  0.37830279
   0.59037523  0.35598276  0.09426948
   0.02068488  0.43841618  0.28074424
   0.85073395  0.35517593  0.09276688
   0.02471642  0.70180791  0.28138132
   0.35393879  0.62014546  0.37460247
   0.75755755  0.69632177  0.28105608
   0.52301910  0.20973372  0.28049939
   0.69637732  0.78560518  0.18528358
   0.60884558  0.87425558  0.09166776
   0.92913217  0.01826859  0.46966893
   0.43406226  0.78792216  0.18546157
   0.09296176  0.61045406  0.37510969
   0.67999872  0.27993311  0.47349579
   0.69281754  0.04635841  0.18456429
   0.09978187  0.87213446  0.37769036
   0.18096390  0.79351421  0.18368742
   0.68353128  0.53037484  0.18644980
   0.52466496  0.70426644  0.28157491
   0.18708800  0.03046118  0.47117650
   0.09440410  0.11336479  0.09301403
   0.10516424  0.60892936  0.09155093
   0.93795744  0.78827068  0.18752849
   0.34361426  0.11416088  0.09598352
   0.84377512  0.61544578  0.37873869
   0.77176790  0.19800070  0.28037733
   0.09325783  0.35762631  0.37406048
   0.94163759  0.03708398  0.18484598
   0.10000831  0.87856512  0.09101170
   0.51214587  0.44192555  0.28047038
   0.68283817  0.77470138  0.46748424
   0.60279715  0.61955477  0.37728883
   0.34560664  0.61217173  0.09332320
   0.67748213  0.28331795  0.18796527
   0.92936705  0.77736194  0.46867675
   0.17756442  0.27462229  0.18338144
   0.94937918  0.28622722  0.18716911
   0.35397458  0.86828774  0.37524015
   0.84105935  0.86285152  0.37194016
   0.59394769  0.61026369  0.09162789
   0.45152109  0.79842250  0.46754899
   0.43667246  0.04696475  0.18734866
   0.67771487  0.03488965  0.47267639
   0.84490411  0.36241984  0.37637088
   0.44100236  0.53430369  0.46901952
   0.18970704  0.79052182  0.47288237
   0.34347587  0.35806266  0.09602583
   0.34765498  0.10994089  0.37751481
   0.77344970  0.95432056  0.28106152
   0.26311274  0.20332441  0.27775159
   0.17790595  0.04025689  0.18381115
   0.26692356  0.70058958  0.27960182
   0.86043101  0.86855657  0.09272134
   0.43250499  0.03346569  0.47026753
   0.26224249  0.43848574  0.27922131
   0.43022034  0.27294502  0.18687510
   0.92339412  0.52135728  0.47178866
   0.10506799  0.36408338  0.09614422
   0.59516905  0.11484357  0.09128271
   0.86733156  0.12039782  0.09319659
   0.17852364  0.52574843  0.18460190
   0.09997809  0.11715778  0.37181711
   0.60175039  0.36266799  0.37701321
   0.59793178  0.86098542  0.37633511
   0.01265374  0.19497219  0.27649721
Direct configuration=     3
   0.51956069  0.93979667  0.28090192
   0.42929498  0.52175182  0.18241792
   0.26826335  0.95461963  0.27984782
   0.18091388  0.27753630  0.47236073
   0.68761222  0.53709815  0.47217115
   0.75957256  0.44366159  0.28439394
   0.93588054  0.53009301  0.18753627
   0.84774853  0.62137919  0.09343029
   0.43378573  0.27410236  0.47338326
   0.93323872  0.28087901  0.47411930
   0.84654115  0.11094392  0.37437110
   0.18501636  0.53848080  0.47404966
   0.02201964  0.96531443  0.27738498
   0.35058364  0.36236530  0.37077416
   0.34630083  0.87086406  0.08953101
   0.59363167  0.11233510  0.37834231
   0.59037523  0.35598276  0.09426948
   0.02081979  0.43824501  0.28083478
   0.85073395  0.35517593  0.09276688
   0.02512873  0.70172453  0.28147047
   0.35401306  0.62021150  0.37454561
   0.75668320  0.69571809  0.28113693
   0.52323410  0.21037052  0.28050182
   0.69637732  0.78560518  0.18528358
   0.60884558  0.87425558  0.09166776
   0.92910018  0.01809858  0.46970059
   0.43406226  0.78792216  0.18546157
   0.09296329  0.61041589  0.37513323
   0.67991962  0.28001328  0.47356956
   0.69281754  0.04635841  0.18456429
   0.09972678  0.87218174  0.37777159
   0.18096390  0.79351421  0.18368742
   0.68353128  0.53037484  0.18644980
   0.52449065  0.70409498  0.28159876
   0.18700064  0.03042178  0.47113250
   0.09440410  0.11336479  0.09301403
   0.10516424  0.60892936  0.09155093
   0.93795744  0.78827068  0.18752849
   0.34361426  0.11416088  0.09598352
   0.84364729  0.61534317  0.37874328
   0.77199034  0.19807262  0.28035962
   0.09325950  0.35755013  0.37401850
   0.94163759  0.03708398  0.18484598
   0.10000831  0.87856512  0.09101170
   0.51209761  0.44207267  0.28047607
   0.68271222  0.77468889  0.46742709
   0.60289687  0.61961434  0.37726674
   0.34560664  0.61217173  0.09332320
   0.67748213  0.28331795  0.18796527
   0.92937539  0.77733572  0.46862313
   0.17756442  0.27462229  0.18338144
   0.94937918  0.28622722  0.18716911
   0.35373838  0.86808756  0.37528565
   0.84101918  0.86276950  0.37202834
   0.59394769  0.61026369  0.09162789
   0.45162491  0.79843275  0.46750498
   0.43667246  0.04696475  0.18734866
   0.67745542  0.03431656  0.47268317
   0.84489314  0.36254208  0.37634494
   0.44107959  0.53459247  0.46904170
   0.18975828  0.79052478  0.47295204
   0.34347587  0.35806266  0.09602583
   0.34748245  0.10984807  0.37749701
   0.77324234  0.95443712  0.28106002
   0.26324953  0.20361702  0.27778789
   0.17790595  0.04025689  0.18381115
   0.26706619  0.70054632  0.27962441
   0.86043101  0.86855657  0.09272134
   0.43231095  0.03310958  0.47027711
   0.26240288  0.43851138  0.27926241
   0.43022034  0.27294502  0.18687510
   0.92366877  0.52175295  0.47176488
   0.10506799  0.36408338  0.09614422
   0.59516905  0.11484357  0.09128271
   0.86733156  0.12039782  0.09319659
   0.17852364  0.52574843  0.18460190
   0.09991764  0.11724800  0.37184309
   0.60200956  0.36302979  0.37691810
   0.59788632  0.86067618  0.37640905
   0.01263048  0.19519463  0.27653620
Direct configuration=     4
   0.52084724  0.94127182  0.28183284
   0.42929498  0.52175182  0.18241792
   0.27460465  0.95747096  0.28051816
   0.18322405  0.27883835  0.47224792
   0.68646331  0.53974255  0.47171138
   0.76597277  0.44800491  0.28538284
   0.93588054  0.53009301  0.18753627
   0.84774853  0.62137919  0.09343029
   0.43062425  0.27489676  0.47457360
   0.93158507  0.28079565  0.47422352
   0.85149589  0.11290442  0.37231695
   0.19093033  0.54563951  0.47388395
   0.01740961  0.96268411  0.27873152
   0.34983907  0.36144852  0.36886183
   0.34630083  0.87086406  0.08953101
   0.59516971  0.11303070  0.37824899
   0.59037523  0.35598276  0.09426948
   0.02174655  0.43683530  0.28223039
   0.85073395  0.35517593  0.09276688
   0.02112551  0.69869902  0.28295361
   0.35474333  0.61998607  0.37335106
   0.75337522  0.69297428  0.28304938
   0.51391675  0.20310210  0.28063996
   0.69637732  0.78560518  0.18528358
   0.60884558  0.87425558  0.09166776
   0.92699154  0.01413466  0.47052530
   0.43406226  0.78792216  0.18546157
   0.09457846  0.61121982  0.37763539
   0.68232181  0.28080653  0.47525854
   0.69281754  0.04635841  0.18456429
   0.09786654  0.87135757  0.38018340
   0.18096390  0.79351421  0.18368742
   0.68353128  0.53037484  0.18644980
   0.51751464  0.69719194  0.28204940
   0.18550242  0.02814593  0.47007279
   0.09440410  0.11336479  0.09301403
   0.10516424  0.60892936  0.09155093
   0.93795744  0.78827068  0.18752849
   0.34361426  0.11416088  0.09598352
   0.84140451  0.61322801  0.37854770
   0.77460350  0.19818861  0.27975648
   0.09516513  0.35709602  0.37348316
   0.94163759  0.03708398  0.18484598
   0.10000831  0.87856512  0.09101170
   0.50987770  0.44773540  0.27996694
   0.67957598  0.77581843  0.46602148
   0.60375808  0.61972779  0.37697123
   0.34560664  0.61217173  0.09332320
   0.67748213  0.28331795  0.18796527
   0.93293677  0.77675469  0.46732233
   0.17756442  0.27462229  0.18338144
   0.94937918  0.28622722  0.18716911
   0.34968973  0.86613500  0.37717891
   0.84018168  0.85990652  0.37359362
   0.59394769  0.61026369  0.09162789
   0.45100392  0.79759594  0.46664333
   0.43667246  0.04696475  0.18734866
   0.67352126  0.02303538  0.47201824
   0.84471049  0.36486654  0.37665359
   0.44183378  0.54038073  0.46900203
   0.19101317  0.79115737  0.47178606
   0.34347587  0.35806266  0.09602583
   0.34505855  0.10879888  0.37743316
   0.76954981  0.95462590  0.28083197
   0.26801247  0.20965960  0.27785641
   0.17790595  0.04025689  0.18381115
   0.27095153  0.69785915  0.27998405
   0.86043101  0.86855657  0.09272134
   0.42514672  0.02236163  0.47022295
   0.26650383  0.44001025  0.27980128
   0.43022034  0.27294502  0.18687510
   0.93130374  0.53139578  0.47091089
   0.10506799  0.36408338  0.09614422
   0.59516905  0.11484357  0.09128271
   0.86733156  0.12039782  0.09319659
   0.17852364  0.52574843  0.18460190
   0.09933689  0.12028956  0.37320512
   0.60623080  0.37145373  0.37656161
   0.59934819  0.85779686  0.37810370
   0.01234900  0.20068884  0.27730168
Direct configuration=     5
   0.52096258  0.94140407  0.28191630
   0.42929498  0.52175182  0.18241792
   0.27517315  0.95772658  0.28057826
   0.18343116  0.27895508  0.47223781
   0.68636031  0.53997962  0.47167016
   0.76654655  0.44839429  0.28547150
   0.93588054  0.53009301  0.18753627
   0.84774853  0.62137919  0.09343029
   0.43034082  0.27496798  0.47468032
   0.93143681  0.28078817  0.47423286
   0.85194008  0.11308018  0.37213280
   0.19146052  0.54628130  0.47386910
   0.01699632  0.96244830  0.27885223
   0.34977232  0.36136633  0.36869038
   0.34630083  0.87086406  0.08953101
   0.59530760  0.11309307  0.37824063
   0.59037523  0.35598276  0.09426948
   0.02182963  0.43670892  0.28235551
   0.85073395  0.35517593  0.09276688
   0.02076662  0.69842778  0.28308658
   0.35480879  0.61996586  0.37324396
   0.75307865  0.69272829  0.28322083
   0.51308145  0.20245048  0.28065235
   0.69637732  0.78560518  0.18528358
   0.60884558  0.87425558  0.09166776
   0.92680250  0.01377929  0.47059924
   0.43406226  0.78792216  0.18546157
   0.09472327  0.61129189  0.37785971
   0.68253716  0.28087765  0.47540996
   0.69281754  0.04635841  0.18456429
   0.09769977  0.87128368  0.38039962
   0.18096390  0.79351421  0.18368742
   0.68353128  0.53037484  0.18644980
   0.51688924  0.69657307  0.28208980
   0.18536810  0.02794190  0.46997778
   0.09440410  0.11336479  0.09301403
   0.10516424  0.60892936  0.09155093
   0.93795744  0.78827068  0.18752849
   0.34361426  0.11416088  0.09598352
   0.84120344  0.61303838  0.37853016
   0.77483777  0.19819901  0.27970241
   0.09533597  0.35705531  0.37343516
   0.94163759  0.03708398  0.18484598
   0.10000831  0.87856512  0.09101170
   0.50967868  0.44824307  0.27992130
   0.67929482  0.77591970  0.46589547
   0.60383528  0.61973796  0.37694474
   0.34560664  0.61217173  0.09332320
   0.67748213  0.28331795  0.18796527
   0.93325604  0.77670260  0.46720571
   0.17756442  0.27462229  0.18338144
   0.94937918  0.28622722  0.18716911
   0.34932677  0.86595996  0.37734864
   0.84010660  0.85964985  0.37373395
   0.59394769  0.61026369  0.09162789
   0.45094824  0.79752092  0.46656608
   0.43667246  0.04696475  0.18734866
   0.67316856  0.02202401  0.47195863
   0.84469411  0.36507493  0.37668126
   0.44190139  0.54089965  0.46899847
   0.19112567  0.79121408  0.47168153
   0.34347587  0.35806266  0.09602583
   0.34484125  0.10870482  0.37742743
   0.76921877  0.95464283  0.28081152
   0.26843947  0.21020132  0.27786255
   0.17790595  0.04025689  0.18381115
   0.27129985  0.69761825  0.28001630
   0.86043101  0.86855657  0.09272134
   0.42450445  0.02139808  0.47021810
   0.26687148  0.44014462  0.27984959
   0.43022034  0.27294502  0.18687510
   0.93198822  0.53226027  0.47083433
   0.10506799  0.36408338  0.09614422
   0.59516905  0.11484357  0.09128271
   0.86733156  0.12039782  0.09319659
   0.17852364  0.52574843  0.18460190
   0.09928483  0.12056224  0.37332723
   0.60660924  0.37220894  0.37652965
   0.59947925  0.85753873  0.37825562
   0.01232377  0.20118140  0.27737031
Direct configuration=     6
   0.52219653  0.94405031  0.28358068
   0.42929498  0.52175182  0.18241792
   0.27018958  0.95426491  0.28135352
   0.18433221  0.28068295  0.47174444
   0.68494368  0.53928873  0.47149693
   0.76560416  0.44527205  0.28496086
   0.93588054  0.53009301  0.18753627
   0.84774853  0.62137919  0.09343029
   0.43047638  0.27522273  0.47403719
   0.93119504  0.28145192  0.47365143
   0.85155641  0.11311429  0.37181455
   0.19504079  0.54934964  0.47432343
   0.01425196  0.95865817  0.27994192
   0.35127510  0.36109662  0.37031802
   0.34630083  0.87086406  0.08953101
   0.59597458  0.11293891  0.37863893
   0.59037523  0.35598276  0.09426948
   0.02305151  0.44051299  0.28273499
   0.85073395  0.35517593  0.09276688
   0.02020245  0.70111205  0.28386399
   0.35453007  0.61895003  0.37285816
   0.75701416  0.69709855  0.28383497
   0.51585042  0.20495404  0.28119076
   0.69637732  0.78560518  0.18528358
   0.60884558  0.87425558  0.09166776
   0.92572764  0.01329817  0.47116047
   0.43406226  0.78792216  0.18546157
   0.09588210  0.61240699  0.37909844
   0.68193337  0.28019913  0.47609391
   0.69281754  0.04635841  0.18456429
   0.09692438  0.87035399  0.38051454
   0.18096390  0.79351421  0.18368742
   0.68353128  0.53037484  0.18644980
   0.51211094  0.69287195  0.28194070
   0.18519122  0.02736351  0.46968423
   0.09440410  0.11336479  0.09301403
   0.10516424  0.60892936  0.09155093
   0.93795744  0.78827068  0.18752849
   0.34361426  0.11416088  0.09598352
   0.84094238  0.61219291  0.37848023
   0.77388101  0.19811567  0.27911255
   0.09790696  0.35826624  0.37380288
   0.94163759  0.03708398  0.18484598
   0.10000831  0.87856512  0.09101170
   0.51011934  0.45088891  0.27906363
   0.67702632  0.77764765  0.46521807
   0.60253461  0.61828229  0.37692708
   0.34560664  0.61217173  0.09332320
   0.67748213  0.28331795  0.18796527
   0.93609715  0.77534563  0.46685555
   0.17756442  0.27462229  0.18338144
   0.94937918  0.28622722  0.18716911
   0.34810157  0.86644325  0.37883721
   0.83996411  0.85839761  0.37468360
   0.59394769  0.61026369  0.09162789
   0.44867955  0.79549770  0.46628147
   0.43667246  0.04696475  0.18734866
   0.67260376  0.01690909  0.47093683
   0.84463806  0.36579041  0.37766155
   0.44168660  0.54413585  0.46876017
   0.19167986  0.79165582  0.47014543
   0.34347587  0.35806266  0.09602583
   0.34455711  0.10898258  0.37798255
   0.76775247  0.95285887  0.28065964
   0.26744410  0.20952729  0.27695180
   0.17790595  0.04025689  0.18381115
   0.27235708  0.69554040  0.28003825
   0.86043101  0.86855657  0.09272134
   0.42075668  0.01647652  0.46990622
   0.26839177  0.44222607  0.27945022
   0.43022034  0.27294502  0.18687510
   0.93529484  0.53734651  0.47040453
   0.10506799  0.36408338  0.09614422
   0.59516905  0.11484357  0.09128271
   0.86733156  0.12039782  0.09319659
   0.17852364  0.52574843  0.18460190
   0.09951677  0.12133119  0.37437725
   0.60730382  0.37520255  0.37715689
   0.60210032  0.85871921  0.37889248
   0.01371322  0.20102756  0.27728308
Direct configuration=     7
   0.52250232  0.94470609  0.28399313
   0.42929498  0.52175182  0.18241792
   0.26895458  0.95340706  0.28154564
   0.18455550  0.28111114  0.47162217
   0.68459262  0.53911751  0.47145400
   0.76537062  0.44449832  0.28483432
   0.93588054  0.53009301  0.18753627
   0.84774853  0.62137919  0.09343029
   0.43050997  0.27528586  0.47387781
   0.93113512  0.28161641  0.47350734
   0.85146133  0.11312274  0.37173569
   0.19592803  0.55011002  0.47443603
   0.01357187  0.95771892  0.28021196
   0.35164751  0.36102979  0.37072137
   0.34630083  0.87086406  0.08953101
   0.59613987  0.11290071  0.37873763
   0.59037523  0.35598276  0.09426948
   0.02335431  0.44145569  0.28282903
   0.85073395  0.35517593  0.09276688
   0.02006264  0.70177725  0.28405665
   0.35446100  0.61869829  0.37276256
   0.75798944  0.69818156  0.28398716
   0.51653661  0.20557445  0.28132419
   0.69637732  0.78560518  0.18528358
   0.60884558  0.87425558  0.09166776
   0.92546128  0.01317894  0.47129955
   0.43406226  0.78792216  0.18546157
   0.09616928  0.61268333  0.37940542
   0.68178374  0.28003099  0.47626341
   0.69281754  0.04635841  0.18456429
   0.09673223  0.87012360  0.38054302
   0.18096390  0.79351421  0.18368742
   0.68353128  0.53037484  0.18644980
   0.51092682  0.69195475  0.28190376
   0.18514738  0.02722017  0.46961148
   0.09440410  0.11336479  0.09301403
   0.10516424  0.60892936  0.09155093
   0.93795744  0.78827068  0.18752849
   0.34361426  0.11416088  0.09598352
   0.84087769  0.61198339  0.37846786
   0.77364391  0.19809501  0.27896638
   0.09854408  0.35856633  0.37389400
   0.94163759  0.03708398  0.18484598
   0.10000831  0.87856512  0.09101170
   0.51022854  0.45154458  0.27885109
   0.67646415  0.77807586  0.46505020
   0.60221229  0.61792155  0.37692270
   0.34560664  0.61217173  0.09332320
   0.67748213  0.28331795  0.18796527
   0.93680122  0.77500936  0.46676877
   0.17756442  0.27462229  0.18338144
   0.94937918  0.28622722  0.18716911
   0.34779795  0.86656302  0.37920610
   0.83992880  0.85808729  0.37491893
   0.59394769  0.61026369  0.09162789
   0.44811734  0.79499631  0.46621094
   0.43667246  0.04696475  0.18734866
   0.67246379  0.01564154  0.47068362
   0.84462417  0.36596772  0.37790448
   0.44163337  0.54493783  0.46870112
   0.19181720  0.79176528  0.46976476
   0.34347587  0.35806266  0.09602583
   0.34448669  0.10905141  0.37812012
   0.76738910  0.95241678  0.28062200
   0.26719743  0.20936026  0.27672610
   0.17790595  0.04025689  0.18381115
   0.27261908  0.69502548  0.28004369
   0.86043101  0.86855657  0.09272134
   0.41982793  0.01525689  0.46982893
   0.26876852  0.44274188  0.27935125
   0.43022034  0.27294502  0.18687510
   0.93611427  0.53860695  0.47029802
   0.10506799  0.36408338  0.09614422
   0.59516905  0.11484357  0.09128271
   0.86733156  0.12039782  0.09319659
   0.17852364  0.52574843  0.18460190
   0.09957425  0.12152174  0.37463747
   0.60747595  0.37594441  0.37731233
   0.60274986  0.85901175  0.37905030
   0.01405755  0.20098944  0.27726147
Direct configuration=     8
   0.52063067  0.94378320  0.28443588
   0.42929498  0.52175182  0.18241792
   0.26998123  0.95506017  0.28197765
   0.18389392  0.28188023  0.47164377
   0.68457596  0.53947186  0.47149549
   0.76529894  0.44547422  0.28451676
   0.93588054  0.53009301  0.18753627
   0.84774853  0.62137919  0.09343029
   0.43112813  0.27452981  0.47330966
   0.93217057  0.28281780  0.47281270
   0.85139151  0.11353628  0.37180928
   0.19663563  0.55032174  0.47527076
   0.01356433  0.95907917  0.28065829
   0.35302980  0.36097119  0.37081371
   0.34630083  0.87086406  0.08953101
   0.59596227  0.11360648  0.37969207
   0.59037523  0.35598276  0.09426948
   0.02404049  0.44299778  0.28299700
   0.85073395  0.35517593  0.09276688
   0.01870791  0.70005517  0.28415423
   0.35447298  0.61893573  0.37289572
   0.75829704  0.69871857  0.28396822
   0.51488420  0.20428698  0.28173357
   0.69637732  0.78560518  0.18528358
   0.60884558  0.87425558  0.09166776
   0.92570757  0.01385809  0.47171573
   0.43406226  0.78792216  0.18546157
   0.09632104  0.61285522  0.37914907
   0.68061215  0.27886523  0.47648442
   0.69281754  0.04635841  0.18456429
   0.09685196  0.87072043  0.38003072
   0.18096390  0.79351421  0.18368742
   0.68353128  0.53037484  0.18644980
   0.51045989  0.69215515  0.28144990
   0.18518394  0.02768514  0.46971160
   0.09440410  0.11336479  0.09301403
   0.10516424  0.60892936  0.09155093
   0.93795744  0.78827068  0.18752849
   0.34361426  0.11416088  0.09598352
   0.84111118  0.61139325  0.37837981
   0.77376134  0.19854524  0.27861696
   0.09943374  0.35948098  0.37406633
   0.94163759  0.03708398  0.18484598
   0.10000831  0.87856512  0.09101170
   0.51133379  0.45215080  0.27867575
   0.67536069  0.77842932  0.46513768
   0.60129030  0.61692871  0.37665785
   0.34560664  0.61217173  0.09332320
   0.67748213  0.28331795  0.18796527
   0.93777012  0.77393312  0.46715951
   0.17756442  0.27462229  0.18338144
   0.94937918  0.28622722  0.18716911
   0.34829121  0.86775475  0.37982753
   0.84026272  0.85828411  0.37567020
   0.59394769  0.61026369  0.09162789
   0.44627385  0.79328979  0.46621106
   0.43667246  0.04696475  0.18734866
   0.67310130  0.01474561  0.46992796
   0.84484891  0.36621681  0.37860614
   0.44151812  0.54607762  0.46861557
   0.19141190  0.79129571  0.46899670
   0.34347587  0.35806266  0.09602583
   0.34500086  0.10933708  0.37841896
   0.76726229  0.95151916  0.28065782
   0.26542626  0.20790729  0.27636435
   0.17790595  0.04025689  0.18381115
   0.27256502  0.69479786  0.27980318
   0.86043101  0.86855657  0.09272134
   0.41970368  0.01508433  0.46969039
   0.26865571  0.44309923  0.27933163
   0.43022034  0.27294502  0.18687510
   0.93598581  0.53980716  0.47045182
   0.10506799  0.36408338  0.09614422
   0.59516905  0.11484357  0.09128271
   0.86733156  0.12039782  0.09319659
   0.17852364  0.52574843  0.18460190
   0.09945692  0.12065836  0.37511717
   0.60739115  0.37568052  0.37770021
   0.60381177  0.86013796  0.37887004
   0.01512302  0.20054027  0.27713367
Direct configuration=     9
   0.52007266  0.94350805  0.28456788
   0.42929498  0.52175182  0.18241792
   0.27028732  0.95555302  0.28210645
   0.18369668  0.28210952  0.47165021
   0.68457099  0.53957751  0.47150786
   0.76527757  0.44576518  0.28442208
   0.93588054  0.53009301  0.18753627
   0.84774853  0.62137919  0.09343029
   0.43131242  0.27430440  0.47314027
   0.93247927  0.28317598  0.47260560
   0.85137070  0.11365958  0.37183122
   0.19684659  0.55038486  0.47551963
   0.01356208  0.95948471  0.28079136
   0.35344192  0.36095371  0.37084124
   0.34630083  0.87086406  0.08953101
   0.59590932  0.11381689  0.37997663
   0.59037523  0.35598276  0.09426948
   0.02424507  0.44345754  0.28304708
   0.85073395  0.35517593  0.09276688
   0.01830401  0.69954175  0.28418332
   0.35447656  0.61900652  0.37293542
   0.75838875  0.69887867  0.28396257
   0.51439155  0.20390314  0.28185562
   0.69637732  0.78560518  0.18528358
   0.60884558  0.87425558  0.09166776
   0.92578100  0.01406058  0.47183981
   0.43406226  0.78792216  0.18546157
   0.09636629  0.61290647  0.37907264
   0.68026285  0.27851768  0.47655032
   0.69281754  0.04635841  0.18456429
   0.09688766  0.87089837  0.37987799
   0.18096390  0.79351421  0.18368742
   0.68353128  0.53037484  0.18644980
   0.51032068  0.69221490  0.28131459
   0.18519485  0.02782376  0.46974145
   0.09440410  0.11336479  0.09301403
   0.10516424  0.60892936  0.09155093
   0.93795744  0.78827068  0.18752849
   0.34361426  0.11416088  0.09598352
   0.84118080  0.61121731  0.37835355
   0.77379635  0.19867947  0.27851278
   0.09969898  0.35975367  0.37411771
   0.94163759  0.03708398  0.18484598
   0.10000831  0.87856512  0.09101170
   0.51166331  0.45233153  0.27862348
   0.67503171  0.77853470  0.46516376
   0.60101542  0.61663270  0.37657889
   0.34560664  0.61217173  0.09332320
   0.67748213  0.28331795  0.18796527
   0.93805899  0.77361225  0.46727600
   0.17756442  0.27462229  0.18338144
   0.94937918  0.28622722  0.18716911
   0.34843827  0.86811005  0.38001281
   0.84036227  0.85834278  0.37589418
   0.59394769  0.61026369  0.09162789
   0.44572424  0.79278101  0.46621109
   0.43667246  0.04696475  0.18734866
   0.67329137  0.01447850  0.46970267
   0.84491592  0.36629107  0.37881533
   0.44148376  0.54641744  0.46859006
   0.19129107  0.79115572  0.46876771
   0.34347587  0.35806266  0.09602583
   0.34515415  0.10942225  0.37850806
   0.76722448  0.95125155  0.28066850
   0.26489820  0.20747410  0.27625649
   0.17790595  0.04025689  0.18381115
   0.27254890  0.69473000  0.27973148
   0.86043101  0.86855657  0.09272134
   0.41966664  0.01503288  0.46964909
   0.26862208  0.44320577  0.27932579
   0.43022034  0.27294502  0.18687510
   0.93594751  0.54016498  0.47049767
   0.10506799  0.36408338  0.09614422
   0.59516905  0.11484357  0.09128271
   0.86733156  0.12039782  0.09319659
   0.17852364  0.52574843  0.18460190
   0.09942194  0.12040095  0.37526019
   0.60736587  0.37560185  0.37781585
   0.60412837  0.86047372  0.37881630
   0.01544069  0.20040636  0.27709557
Direct configuration=    10
   0.51944195  0.94294200  0.28477078
   0.42929498  0.52175182  0.18241792
   0.26892134  0.95487124  0.28213738
   0.18463312  0.28255945  0.47176395
   0.68461839  0.54018132  0.47153804
   0.76346549  0.44503703  0.28443959
   0.93588054  0.53009301  0.18753627
   0.84774853  0.62137919  0.09343029
   0.43041112  0.27378409  0.47286235
   0.93271886  0.28448042  0.47207792
   0.85189317  0.11453305  0.37166669
   0.19628718  0.55046638  0.47614539
   0.01392026  0.95983914  0.28093648
   0.35375290  0.36077849  0.37023615
   0.34630083  0.87086406  0.08953101
   0.59584024  0.11442128  0.38053081
   0.59037523  0.35598276  0.09426948
   0.02422420  0.44255187  0.28307316
   0.85073395  0.35517593  0.09276688
   0.01893549  0.70040523  0.28398317
   0.35485792  0.61964678  0.37306154
   0.75789788  0.69900558  0.28402823
   0.51468436  0.20465347  0.28216235
   0.69637732  0.78560518  0.18528358
   0.60884558  0.87425558  0.09166776
   0.92618525  0.01434690  0.47230092
   0.43406226  0.78792216  0.18546157
   0.09669325  0.61294353  0.37902239
   0.68059074  0.27792113  0.47698708
   0.69281754  0.04635841  0.18456429
   0.09693642  0.87137148  0.37954327
   0.18096390  0.79351421  0.18368742
   0.68353128  0.53037484  0.18644980
   0.51072640  0.69295429  0.28091645
   0.18501213  0.02821176  0.46983752
   0.09440410  0.11336479  0.09301403
   0.10516424  0.60892936  0.09155093
   0.93795744  0.78827068  0.18752849
   0.34361426  0.11416088  0.09598352
   0.84127792  0.61082350  0.37836252
   0.77405738  0.19906731  0.27835332
   0.10017795  0.36021859  0.37408260
   0.94163759  0.03708398  0.18484598
   0.10000831  0.87856512  0.09101170
   0.51217820  0.45212850  0.27856657
   0.67442001  0.77850907  0.46544759
   0.60065253  0.61613956  0.37622678
   0.34560664  0.61217173  0.09332320
   0.67748213  0.28331795  0.18796527
   0.93890015  0.77332546  0.46772129
   0.17756442  0.27462229  0.18338144
   0.94937918  0.28622722  0.18716911
   0.34894596  0.86900448  0.38037274
   0.84061578  0.85858605  0.37657613
   0.59394769  0.61026369  0.09162789
   0.44469210  0.79180611  0.46627213