       N       E                     dE             d eps       ncg     rms          rms(c)
DAV:   1     0.674791168064E+04    0.67479E+04   -0.31465E+05  2096   0.146E+03
DAV:   2     0.401905772204E+03   -0.63460E+04   -0.58014E+04  2096   0.355E+02
DAV:   3    -0.472002224620E+03   -0.87391E+03   -0.71482E+03  2276   0.158E+02
DAV:   4    -0.545071641892E+03   -0.73069E+02   -0.69069E+02  2368   0.469E+01
DAV:   5    -0.546849604370E+03   -0.17780E+01   -0.17715E+01  2384   0.765E+00    0.104E+02
RMM:   6    -0.741366044474E+03   -0.19452E+03   -0.91254E+02  2100   0.701E+01    0.188E+02
RMM:   7    -0.605507512732E+03    0.13586E+03   -0.25612E+02  2099   0.336E+01    0.153E+02
RMM:   8    -0.657331440238E+03   -0.51824E+02   -0.11020E+02  2100   0.212E+01    0.171E+02
RMM:   9    -0.593724869486E+03    0.63607E+02   -0.11877E+02  2101   0.230E+01    0.146E+02
RMM:  10    -0.518687891853E+03    0.75037E+02   -0.17838E+02  2102   0.281E+01    0.120E+02
RMM:  11    -0.489358029920E+03    0.29330E+02   -0.14271E+02  2101   0.247E+01    0.104E+02
RMM:  12    -0.478164765966E+03    0.11193E+02   -0.88436E+01  2104   0.207E+01    0.109E+02
RMM:  13    -0.447855617708E+03    0.30309E+02   -0.64334E+01  2103   0.181E+01    0.686E+01
RMM:  14    -0.441868187809E+03    0.59874E+01   -0.31241E+01  2101   0.121E+01    0.707E+01
RMM:  15    -0.446613417473E+03   -0.47452E+01   -0.24342E+01  2100   0.107E+01    0.684E+01
RMM:  16    -0.441687577440E+03    0.49258E+01   -0.18038E+01  2102   0.931E+00    0.457E+01
RMM:  17    -0.440876856085E+03    0.81072E+00   -0.83046E+00  2103   0.622E+00    0.446E+01
RMM:  18    -0.443721341482E+03   -0.28445E+01   -0.59874E+00  2101   0.512E+00    0.391E+01
RMM:  19    -0.449225909295E+03   -0.55046E+01   -0.52776E+00  2104   0.466E+00    0.386E+01
RMM:  20    -0.450341185424E+03   -0.11153E+01   -0.44424E+00  2101   0.425E+00    0.266E+01
RMM:  21    -0.459003225625E+03   -0.86620E+01   -0.53343E+00  2102   0.431E+00    0.348E+01
RMM:  22    -0.463113823229E+03   -0.41106E+01   -0.36419E+00  2101   0.368E+00    0.256E+01
RMM:  23    -0.467897765278E+03   -0.47839E+01   -0.31194E+00  2101   0.332E+00    0.285E+01
RMM:  24    -0.473525969837E+03   -0.56282E+01   -0.45777E+00  2100   0.365E+00    0.277E+01
RMM:  25    -0.476983833503E+03   -0.34579E+01   -0.34401E+00  2101   0.337E+00    0.246E+01
RMM:  26    -0.481920681586E+03   -0.49368E+01   -0.48736E+00  2099   0.347E+00    0.198E+01
RMM:  27    -0.483195935699E+03   -0.12753E+01   -0.23666E+00  2101   0.264E+00    0.134E+01
RMM:  28    -0.485985912325E+03   -0.27900E+01   -0.20900E+00  2099   0.247E+00    0.208E+01
RMM:  29    -0.485476867292E+03    0.50905E+00   -0.84381E-01  2101   0.170E+00    0.941E+00
RMM:  30    -0.486004943447E+03   -0.52808E+00   -0.26898E-01  2101   0.964E-01    0.909E+00
RMM:  31    -0.486921509601E+03   -0.91657E+00   -0.40441E-01  2100   0.106E+00    0.106E+01
RMM:  32    -0.487534351652E+03   -0.61284E+00   -0.38788E-01  2101   0.113E+00    0.109E+01
RMM:  33    -0.488146063039E+03   -0.61171E+00   -0.59672E-01  2099   0.124E+00    0.900E+00
RMM:  34    -0.488526144869E+03   -0.38008E+00   -0.36911E-01  2102   0.115E+00    0.813E+00
RMM:  35    -0.488794719197E+03   -0.26857E+00   -0.18699E-01  2100   0.792E-01    0.697E+00
RMM:  36    -0.488960425885E+03   -0.16571E+00   -0.10786E-01  2101   0.626E-01    0.557E+00
RMM:  37    -0.489170131561E+03   -0.20971E+00   -0.71718E-02  2101   0.486E-01    0.544E+00
RMM:  38    -0.489369587024E+03   -0.19946E+00   -0.75568E-02  2100   0.486E-01    0.473E+00
RMM:  39    -0.489680099317E+03   -0.31051E+00   -0.94973E-02  2101   0.515E-01    0.530E+00
RMM:  40    -0.489896379180E+03   -0.21628E+00   -0.90965E-02  2100   0.509E-01    0.421E+00
RMM:  41    -0.490047258462E+03   -0.15088E+00   -0.43634E-02  2100   0.367E-01    0.378E+00
RMM:  42    -0.490284294014E+03   -0.23704E+00   -0.58209E-02  2100   0.404E-01    0.417E+00
RMM:  43    -0.490363091330E+03   -0.78797E-01   -0.21069E-02  2100   0.260E-01    0.308E+00
RMM:  44    -0.490564717797E+03   -0.20163E+00   -0.44649E-02  2100   0.341E-01    0.325E+00
RMM:  45    -0.490651853499E+03   -0.87136E-01   -0.26039E-02  2100   0.293E-01    0.238E+00
RMM:  46    -0.490729967305E+03   -0.78114E-01   -0.18657E-02  2101   0.252E-01    0.277E+00
RMM:  47    -0.490743413326E+03   -0.13446E-01   -0.65307E-03  2100   0.163E-01    0.231E+00
RMM:  48    -0.490761291731E+03   -0.17878E-01   -0.97108E-03  2101   0.184E-01    0.218E+00
RMM:  49    -0.490778653861E+03   -0.17362E-01   -0.11258E-02  2100   0.204E-01    0.185E+00
RMM:  50    -0.490789175756E+03   -0.10522E-01   -0.16879E-02  2101   0.233E-01    0.160E+00
RMM:  51    -0.490845654588E+03   -0.56479E-01   -0.27310E-02  2100   0.313E-01    0.225E+00
RMM:  52    -0.490830095983E+03    0.15559E-01   -0.18857E-02  2100   0.261E-01    0.183E+00
RMM:  53    -0.490813330261E+03    0.16766E-01   -0.84530E-03  2101   0.183E-01    0.126E+00
RMM:  54    -0.490821718245E+03   -0.83880E-02   -0.43384E-03  2100   0.122E-01    0.135E+00
RMM:  55    -0.490838035800E+03   -0.16318E-01   -0.41143E-03  2101   0.122E-01    0.128E+00
RMM:  56    -0.490862919291E+03   -0.24883E-01   -0.41750E-03  2100   0.122E-01    0.112E+00
RMM:  57    -0.490870885333E+03   -0.79660E-02   -0.28947E-03  2101   0.101E-01    0.707E-01
RMM:  58    -0.490884121563E+03   -0.13236E-01   -0.25387E-03  2101   0.969E-02    0.667E-01
RMM:  59    -0.490894935391E+03   -0.10814E-01   -0.13547E-03  2100   0.733E-02    0.435E-01
RMM:  60    -0.490908340062E+03   -0.13405E-01   -0.72213E-04  2100   0.513E-02    0.463E-01
RMM:  61    -0.490928619399E+03   -0.20279E-01   -0.11906E-03  2100   0.670E-02    0.576E-01
RMM:  62    -0.490940640581E+03   -0.12021E-01   -0.73529E-04  2100   0.533E-02    0.445E-01
RMM:  63    -0.490948601415E+03   -0.79608E-02   -0.53033E-04  2100   0.430E-02    0.287E-01
RMM:  64    -0.490971607258E+03   -0.23006E-01   -0.45731E-04  2100   0.376E-02    0.253E-01
RMM:  65    -0.491003413421E+03   -0.31806E-01   -0.46036E-04  2100   0.335E-02    0.226E-01
RMM:  66    -0.491000999121E+03    0.24143E-02   -0.37050E-04  2098   0.385E-02    0.362E-01
RMM:  67    -0.491023842848E+03   -0.22844E-01   -0.39432E-04  2100   0.341E-02    0.228E-01
RMM:  68    -0.491051369652E+03   -0.27527E-01   -0.41452E-04  2100   0.287E-02    0.201E-01
RMM:  69    -0.491075148560E+03   -0.23779E-01   -0.31463E-04  2100   0.254E-02    0.164E-01
RMM:  70    -0.491088819229E+03   -0.13671E-01   -0.12908E-04  2098   0.178E-02    0.169E-01
RMM:  71    -0.491097854424E+03   -0.90352E-02   -0.14987E-04  2099   0.222E-02    0.176E-01
RMM:  72    -0.491117739218E+03   -0.19885E-01   -0.31980E-04  2100   0.234E-02    0.132E-01
RMM:  73    -0.491139122999E+03   -0.21384E-01   -0.38504E-04  2100   0.213E-02    0.135E-01
RMM:  74    -0.491148408608E+03   -0.92856E-02   -0.17125E-04  2099   0.168E-02    0.117E-01
RMM:  75    -0.491160451679E+03   -0.12043E-01   -0.30380E-04  2100   0.188E-02    0.107E-01
RMM:  76    -0.491157372042E+03    0.30796E-02   -0.12057E-04  2098   0.211E-02    0.153E-01
RMM:  77    -0.491167769733E+03   -0.10398E-01   -0.43035E-04  2100   0.220E-02    0.730E-02
RMM:  78    -0.491170438981E+03   -0.26692E-02   -0.10756E-04  2096   0.118E-02    0.688E-02
RMM:  79    -0.491172564621E+03   -0.21256E-02   -0.84270E-05  2095   0.104E-02    0.726E-02
RMM:  80    -0.491173067973E+03   -0.50335E-03   -0.34580E-05  2032   0.731E-03    0.564E-02
RMM:  81    -0.491173180358E+03   -0.11238E-03   -0.16948E-05  1963   0.711E-03    0.498E-02
RMM:  82    -0.491173241172E+03   -0.60814E-04   -0.18265E-05  1878   0.629E-03    0.325E-02
RMM:  83    -0.491173216966E+03    0.24206E-04   -0.15284E-05  1815   0.469E-03    0.245E-02
RMM:  84    -0.491173279159E+03   -0.62194E-04   -0.31031E-06  1536   0.330E-03    0.199E-02
RMM:  85    -0.491173154736E+03    0.12442E-03   -0.30243E-06  1476   0.289E-03    0.156E-02
RMM:  86    -0.491173176182E+03   -0.21445E-04   -0.19858E-06  1376   0.301E-03    0.211E-02
RMM:  87    -0.491173244134E+03   -0.67952E-04   -0.16177E-06  1327   0.276E-03    0.133E-02
RMM:  88    -0.491173294208E+03   -0.50075E-04   -0.73693E-07  1219   0.177E-03    0.713E-03
RMM:  89    -0.491173408008E+03   -0.11380E-03   -0.61842E-07  1227   0.143E-03    0.846E-03
RMM:  90    -0.491173501432E+03   -0.93424E-04   -0.54367E-07  1228   0.136E-03    0.667E-03
RMM:  91    -0.491173523200E+03   -0.21768E-04   -0.28794E-07  1195   0.103E-03    0.608E-03
RMM:  92    -0.491173595884E+03   -0.72683E-04   -0.36753E-07  1215   0.100E-03    0.605E-03
RMM:  93    -0.491173647118E+03   -0.51234E-04   -0.33328E-07  1202   0.893E-04    0.479E-03
RMM:  94    -0.491173745702E+03   -0.98585E-04   -0.56364E-07  1216   0.910E-04    0.564E-03
RMM:  95    -0.491173788112E+03   -0.42410E-04   -0.35958E-07  1176   0.857E-04    0.320E-03
RMM:  96    -0.491173825306E+03   -0.37194E-04   -0.28950E-07  1150   0.740E-04    0.400E-03
RMM:  97    -0.491173857417E+03   -0.32111E-04   -0.24235E-07  1092   0.722E-04    0.204E-03
RMM:  98    -0.491173878491E+03   -0.21074E-04   -0.16744E-07  1039   0.549E-04    0.208E-03
RMM:  99    -0.491173902011E+03   -0.23520E-04   -0.15766E-07   971   0.501E-04    0.182E-03
RMM: 100    -0.491173918836E+03   -0.16825E-04   -0.12245E-07   963   0.444E-04    0.175E-03
RMM: 101    -0.491173932225E+03   -0.13390E-04   -0.12353E-07   977   0.438E-04    0.146E-03
RMM: 102    -0.491173942260E+03   -0.10034E-04   -0.69792E-08   838   0.387E-04    0.115E-03
RMM: 103    -0.491173951285E+03   -0.90255E-05   -0.85566E-08   807   0.360E-04    0.938E-04
RMM: 104    -0.491173959428E+03   -0.81427E-05   -0.96421E-08   789   0.342E-04    0.815E-04
RMM: 105    -0.491173962774E+03   -0.33463E-05   -0.54716E-08   704   0.315E-04    0.584E-04
RMM: 106    -0.491173964554E+03   -0.17798E-05   -0.23779E-08   553   0.288E-04    0.687E-04
RMM: 107    -0.491173966902E+03   -0.23478E-05   -0.34437E-08   566   0.281E-04    0.343E-04
RMM: 108    -0.491173967822E+03   -0.92016E-06   -0.16142E-08   509   0.267E-04
   1 F= -.52670239E+03 E0= -.52670777E+03  d E =-.526702E+03  mag=    92.2609
       N       E                     dE             d eps       ncg     rms          rms(c)
DAV:   1    -0.488652771187E+03    0.25212E+01   -0.20627E+03  2096   0.553E+01    0.185E+01
RMM:   2    -0.510381053668E+03   -0.21728E+02   -0.82853E+01  2100   0.221E+01    0.650E+01
RMM:   3    -0.499982726294E+03    0.10398E+02   -0.24072E+01  2181   0.101E+01    0.360E+01
RMM:   4    -0.502682929366E+03   -0.27002E+01   -0.59812E+00  2132   0.481E+00    0.430E+01
RMM:   5    -0.496995325962E+03    0.56876E+01   -0.25689E+00  2102   0.317E+00    0.216E+01
RMM:   6    -0.496126076767E+03    0.86925E+00   -0.18566E+00  2100   0.278E+00    0.142E+01
RMM:   7    -0.496015263019E+03    0.11081E+00   -0.91324E-01  2100   0.198E+00    0.142E+01
RMM:   8    -0.495626306742E+03    0.38896E+00   -0.55677E-01  2100   0.155E+00    0.766E+00
RMM:   9    -0.495970894009E+03   -0.34459E+00   -0.53440E-01  2102   0.146E+00    0.132E+01
RMM:  10    -0.495709781607E+03    0.26111E+00   -0.56602E-01  2101   0.151E+00    0.944E+00
RMM:  11    -0.495589742508E+03    0.12004E+00   -0.42200E-01  2102   0.132E+00    0.731E+00
RMM:  12    -0.495564999582E+03    0.24743E-01   -0.27408E-01  2100   0.106E+00    0.622E+00
RMM:  13    -0.495475565876E+03    0.89434E-01   -0.13757E-01  2100   0.779E-01    0.316E+00
RMM:  14    -0.495477355527E+03   -0.17897E-02   -0.70605E-02  2101   0.540E-01    0.353E+00
RMM:  15    -0.495453983960E+03    0.23372E-01   -0.42789E-02  2100   0.420E-01    0.203E+00
RMM:  16    -0.495452683066E+03    0.13009E-02   -0.19310E-02  2100   0.285E-01    0.189E+00
RMM:  17    -0.495445488871E+03    0.71942E-02   -0.12180E-02  2100   0.232E-01    0.107E+00
RMM:  18    -0.495445489512E+03   -0.64120E-06   -0.64237E-03  2100   0.165E-01    0.105E+00
RMM:  19    -0.495444566106E+03    0.92341E-03   -0.50014E-03  2100   0.141E-01    0.846E-01
RMM:  20    -0.495443549699E+03    0.10164E-02   -0.28980E-03  2101   0.112E-01    0.560E-01
RMM:  21    -0.495443386665E+03    0.16303E-03   -0.15889E-03  2100   0.795E-02    0.536E-01
RMM:  22    -0.495442844821E+03    0.54184E-03   -0.99621E-04  2100   0.647E-02    0.358E-01
RMM:  23    -0.495442716643E+03    0.12818E-03   -0.52680E-04  2100   0.468E-02    0.293E-01
RMM:  24    -0.495442540063E+03    0.17658E-03   -0.28349E-04  2100   0.345E-02    0.192E-01
RMM:  25    -0.495442475851E+03    0.64212E-04   -0.12181E-04  2101   0.230E-02    0.100E-01
RMM:  26    -0.495442523151E+03   -0.47300E-04   -0.61497E-05  2097   0.160E-02    0.125E-01
RMM:  27    -0.495442501503E+03    0.21647E-04   -0.36771E-05  2096   0.127E-02    0.599E-02
RMM:  28    -0.495442531318E+03   -0.29815E-04   -0.25343E-05  2096   0.103E-02    0.728E-02
RMM:  29    -0.495442541716E+03   -0.10398E-04   -0.16986E-05  2089   0.855E-03    0.399E-02
RMM:  30    -0.495442554203E+03   -0.12487E-04   -0.92239E-06  1891   0.636E-03    0.347E-02
RMM:  31    -0.495442574924E+03   -0.20721E-04   -0.54638E-06  1787   0.491E-03    0.245E-02
RMM:  32    -0.495442587566E+03   -0.12642E-04   -0.32509E-06  1623   0.404E-03    0.201E-02
RMM:  33    -0.495442611958E+03   -0.24392E-04   -0.20999E-06  1340   0.315E-03    0.176E-02
RMM:  34    -0.495442629277E+03   -0.17319E-04   -0.16954E-06  1254   0.306E-03    0.122E-02
RMM:  35    -0.495442660272E+03   -0.30995E-04   -0.12350E-06  1248   0.230E-03    0.132E-02
RMM:  36    -0.495442677992E+03   -0.17719E-04   -0.93061E-07  1216   0.227E-03    0.893E-03
RMM:  37    -0.495442700515E+03   -0.22524E-04   -0.65727E-07  1220   0.164E-03    0.113E-02
RMM:  38    -0.495442716672E+03   -0.16157E-04   -0.46585E-07  1207   0.153E-03    0.725E-03
RMM:  39    -0.495442735817E+03   -0.19145E-04   -0.37545E-07  1216   0.114E-03    0.859E-03
RMM:  40    -0.495442758552E+03   -0.22735E-04   -0.43471E-07  1222   0.130E-03    0.500E-03
RMM:  41    -0.495442780540E+03   -0.21988E-04   -0.46641E-07  1236   0.118E-03    0.732E-03
RMM:  42    -0.495442804804E+03   -0.24264E-04   -0.55248E-07  1254   0.128E-03    0.443E-03
RMM:  43    -0.495442819073E+03   -0.14269E-04   -0.37718E-07  1219   0.106E-03    0.586E-03
RMM:  44    -0.495442834154E+03   -0.15081E-04   -0.39209E-07  1240   0.101E-03    0.317E-03
RMM:  45    -0.495442840954E+03   -0.68002E-05   -0.21314E-07  1163   0.803E-04    0.383E-03
RMM:  46    -0.495442848631E+03   -0.76766E-05   -0.26431E-07  1219   0.750E-04    0.204E-03
RMM:  47    -0.495442850080E+03   -0.14491E-05   -0.80338E-08  1034   0.531E-04    0.222E-03
RMM:  48    -0.495442851746E+03   -0.16659E-05   -0.57066E-08   943   0.424E-04    0.128E-03
RMM:  49    -0.495442852334E+03   -0.58823E-06   -0.20624E-08   747   0.336E-04
   2 F= -.53083600E+03 E0= -.53084279E+03  d E =-.413361E+01  mag=    92.2105
       N       E                     dE             d eps       ncg     rms          rms(c)
DAV:   1    -0.495395270854E+03    0.47581E-01   -0.38003E+01  2144   0.714E+00    0.205E+00
RMM:   2    -0.495646480128E+03   -0.25121E+00   -0.77316E-01  2100   0.206E+00    0.706E+00
RMM:   3    -0.495576127059E+03    0.70353E-01   -0.24785E-01  2272   0.969E-01    0.521E+00
RMM:   4    -0.495623582235E+03   -0.47455E-01   -0.89339E-02  2102   0.581E-01    0.628E+00
RMM:   5    -0.495508691221E+03    0.11489E+00   -0.48070E-02  2100   0.457E-01    0.230E+00
RMM:   6    -0.495493250340E+03    0.15441E-01   -0.16360E-02  2100   0.273E-01    0.975E-01
RMM:   7    -0.495496088723E+03   -0.28384E-02   -0.69770E-03  2101   0.167E-01    0.141E+00
RMM:   8    -0.495491902424E+03    0.41863E-02   -0.62507E-03  2102   0.157E-01    0.900E-01
RMM:   9    -0.495494322395E+03   -0.24200E-02   -0.64677E-03  2101   0.160E-01    0.128E+00
RMM:  10    -0.495494058887E+03    0.26351E-03   -0.76555E-03  2104   0.169E-01    0.119E+00
RMM:  11    -0.495490315642E+03    0.37432E-02   -0.48666E-03  2100   0.143E-01    0.516E-01
RMM:  12    -0.495490411749E+03   -0.96107E-04   -0.19682E-03  2100   0.892E-02    0.545E-01
RMM:  13    -0.495489665252E+03    0.74650E-03   -0.81892E-04  2100   0.580E-02    0.235E-01
RMM:  14    -0.495489600853E+03    0.64399E-04   -0.27947E-04  2100   0.345E-02    0.183E-01
RMM:  15    -0.495489539632E+03    0.61221E-04   -0.15022E-04  2098   0.240E-02    0.148E-01
RMM:  16    -0.495489485737E+03    0.53896E-04   -0.84798E-05  2099   0.187E-02    0.830E-02
RMM:  17    -0.495489488796E+03   -0.30592E-05   -0.65453E-05  2099   0.156E-02    0.877E-02
RMM:  18    -0.495489470355E+03    0.18440E-04   -0.48311E-05  2103   0.135E-02    0.584E-02
RMM:  19    -0.495489468883E+03    0.14725E-05   -0.28358E-05  2106   0.104E-02    0.614E-02
RMM:  20    -0.495489463261E+03    0.56219E-05   -0.15467E-05  2091   0.769E-03    0.376E-02
RMM:  21    -0.495489463677E+03   -0.41586E-06   -0.66817E-06  1841   0.525E-03
   3 F= -.53088174E+03 E0= -.53088918E+03  d E =-.417935E+01  mag=    92.1953
       N       E                     dE             d eps       ncg     rms          rms(c)
DAV:   1    -0.494977733339E+03    0.51173E+00   -0.45595E+02  2096   0.268E+01    0.952E+00
RMM:   2    -0.498815605457E+03   -0.38379E+01   -0.12116E+01  2100   0.862E+00    0.275E+01
RMM:   3    -0.497847386728E+03    0.96822E+00   -0.50201E+00  2144   0.463E+00    0.208E+01
RMM:   4    -0.497922235283E+03   -0.74849E-01   -0.15278E+00  2109   0.249E+00    0.192E+01
RMM:   5    -0.496810098561E+03    0.11121E+01   -0.54058E-01  2103   0.149E+00    0.876E+00
RMM:   6    -0.496630868267E+03    0.17923E+00   -0.26441E-01  2100   0.104E+00    0.562E+00
RMM:   7    -0.496626678108E+03    0.41902E-02   -0.15020E-01  2100   0.781E-01    0.548E+00
RMM:   8    -0.496542860672E+03    0.83817E-01   -0.84313E-02  2100   0.618E-01    0.234E+00
RMM:   9    -0.496551763665E+03   -0.89030E-02   -0.51301E-02  2101   0.459E-01    0.305E+00
RMM:  10    -0.496540565952E+03    0.11198E-01   -0.51527E-02  2102   0.455E-01    0.245E+00
RMM:  11    -0.496536877259E+03    0.36887E-02   -0.45460E-02  2103   0.432E-01    0.232E+00
RMM:  12    -0.496524150617E+03    0.12727E-01   -0.26738E-02  2101   0.333E-01    0.137E+00
RMM:  13    -0.496522524203E+03    0.16264E-02   -0.12029E-02  2100   0.227E-01    0.115E+00
RMM:  14    -0.496519320056E+03    0.32041E-02   -0.52416E-03  2100   0.153E-01    0.661E-01
RMM:  15    -0.496518351879E+03    0.96818E-03   -0.24731E-03  2100   0.104E-01    0.498E-01
RMM:  16    -0.496518211219E+03    0.14066E-03   -0.12953E-03  2100   0.740E-02    0.447E-01
RMM:  17    -0.496517606467E+03    0.60475E-03   -0.74774E-04  2100   0.578E-02    0.218E-01
RMM:  18    -0.496517604411E+03    0.20555E-05   -0.35189E-04  2100   0.384E-02    0.222E-01
RMM:  19    -0.496517577053E+03    0.27358E-04   -0.24297E-04  2102   0.308E-02    0.162E-01
RMM:  20    -0.496517564409E+03    0.12644E-04   -0.14333E-04  2100   0.244E-02    0.117E-01
RMM:  21    -0.496517626942E+03   -0.62533E-04   -0.87843E-05  2098   0.185E-02    0.112E-01
RMM:  22    -0.496517638068E+03   -0.11126E-04   -0.43431E-05  2097   0.136E-02    0.487E-02
RMM:  23    -0.496517708268E+03   -0.70201E-04   -0.20254E-05  2096   0.911E-03    0.569E-02
RMM:  24    -0.496517776511E+03   -0.68242E-04   -0.11733E-05  2013   0.703E-03    0.309E-02
RMM:  25    -0.496517838441E+03   -0.61930E-04   -0.55826E-06  1787   0.502E-03    0.267E-02
RMM:  26    -0.496517932665E+03   -0.94224E-04   -0.31267E-06  1569   0.376E-03    0.159E-02
RMM:  27    -0.496517986443E+03   -0.53778E-04   -0.17666E-06  1258   0.301E-03    0.135E-02
RMM:  28    -0.496518091469E+03   -0.10503E-03   -0.12386E-06  1242   0.230E-03    0.117E-02
RMM:  29    -0.496518154022E+03   -0.62554E-04   -0.78425E-07  1204   0.197E-03    0.693E-03
RMM:  30    -0.496518253815E+03   -0.99793E-04   -0.73767E-07  1226   0.152E-03    0.103E-02
RMM:  31    -0.496518351758E+03   -0.97942E-04   -0.71522E-07  1223   0.160E-03    0.572E-03
RMM:  32    -0.496518424703E+03   -0.72945E-04   -0.42132E-07  1206   0.110E-03    0.621E-03
RMM:  33    -0.496518524649E+03   -0.99946E-04   -0.52427E-07  1223   0.111E-03    0.398E-03
RMM:  34    -0.496518582314E+03   -0.57665E-04   -0.27256E-07  1181   0.832E-04    0.401E-03
RMM:  35    -0.496518703152E+03   -0.12084E-03   -0.66645E-07  1199   0.855E-04    0.386E-03
RMM:  36    -0.496518760314E+03   -0.57162E-04   -0.29102E-07  1109   0.756E-04    0.312E-03
RMM:  37    -0.496518877425E+03   -0.11711E-03   -0.87598E-07  1222   0.825E-04    0.342E-03
RMM:  38    -0.496518935515E+03   -0.58090E-04   -0.40586E-07  1162   0.770E-04    0.197E-03
RMM:  39    -0.496519018138E+03   -0.82624E-04   -0.91660E-07  1158   0.753E-04    0.250E-03
RMM:  40    -0.496519043529E+03   -0.25390E-04   -0.24389E-07  1063   0.612E-04    0.152E-03
RMM:  41    -0.496519070305E+03   -0.26776E-04   -0.32594E-07  1022   0.531E-04    0.191E-03
RMM:  42    -0.496519079537E+03   -0.92321E-05   -0.11973E-07   951   0.464E-04    0.909E-04
RMM:  43    -0.496519084275E+03   -0.47387E-05   -0.71062E-08   815   0.353E-04    0.113E-03
RMM:  44    -0.496519084939E+03   -0.66387E-06   -0.37832E-08   707   0.311E-04
   4 F= -.53191794E+03 E0= -.53192905E+03  d E =-.103620E+01  mag=    92.2092
       N       E                     dE             d eps       ncg     rms          rms(c)
DAV:   1    -0.496412676560E+03    0.10641E+00   -0.58648E+01  2104   0.945E+00    0.322E+00
RMM:   2    -0.496831392550E+03   -0.41872E+00   -0.10998E+00  2100   0.255E+00    0.898E+00
RMM:   3    -0.496799552936E+03    0.31840E-01   -0.52049E-01  2156   0.148E+00    0.845E+00
RMM:   4    -0.496879715017E+03   -0.80162E-01   -0.20123E-01  2100   0.898E-01    0.880E+00
RMM:   5    -0.496609939658E+03    0.26978E+00   -0.93784E-02  2101   0.639E-01    0.256E+00
RMM:   6    -0.496593360808E+03    0.16579E-01   -0.27778E-02  2100   0.346E-01    0.132E+00
RMM:   7    -0.496596456299E+03   -0.30955E-02   -0.12419E-02  2100   0.223E-01    0.166E+00
RMM:   8    -0.496588582367E+03    0.78739E-02   -0.76965E-03  2101   0.185E-01    0.759E-01
RMM:   9    -0.496591271352E+03   -0.26890E-02   -0.71278E-03  2102   0.170E-01    0.124E+00
RMM:  10    -0.496589614018E+03    0.16573E-02   -0.76635E-03  2101   0.173E-01    0.956E-01
RMM:  11    -0.496587362730E+03    0.22513E-02   -0.51516E-03  2103   0.147E-01    0.565E-01
RMM:  12    -0.496586772206E+03    0.59052E-03   -0.22772E-03  2103   0.964E-02    0.456E-01
RMM:  13    -0.496586315224E+03    0.45698E-03   -0.87467E-04  2100   0.610E-02    0.256E-01
RMM:  14    -0.496586183654E+03    0.13157E-03   -0.35050E-04  2100   0.389E-02    0.229E-01
RMM:  15    -0.496586032030E+03    0.15162E-03   -0.17450E-04  2098   0.276E-02    0.103E-01
RMM:  16    -0.496586013186E+03    0.18844E-04   -0.82941E-05  2098   0.184E-02    0.100E-01
RMM:  17    -0.496585979483E+03    0.33703E-04   -0.56428E-05  2099   0.147E-02    0.568E-02
RMM:  18    -0.496585995655E+03   -0.16172E-04   -0.39867E-05  2099   0.125E-02    0.755E-02
RMM:  19    -0.496585994218E+03    0.14362E-05   -0.25502E-05  2096   0.982E-03    0.480E-02
RMM:  20    -0.496586000829E+03   -0.66110E-05   -0.10515E-05  1966   0.663E-03    0.277E-02
RMM:  21    -0.496586022330E+03   -0.21501E-04   -0.50024E-06  1764   0.467E-03    0.268E-02
RMM:  22    -0.496586036621E+03   -0.14290E-04   -0.25989E-06  1467   0.381E-03    0.122E-02
RMM:  23    -0.496586056001E+03   -0.19380E-04   -0.11643E-06  1196   0.240E-03    0.139E-02
RMM:  24    -0.496586079157E+03   -0.23156E-04   -0.75069E-07  1188   0.209E-03    0.667E-03
RMM:  25    -0.496586094724E+03   -0.15568E-04   -0.32810E-07  1171   0.126E-03    0.608E-03
RMM:  26    -0.496586119875E+03   -0.25151E-04   -0.22743E-07  1185   0.999E-04    0.429E-03
RMM:  27    -0.496586134515E+03   -0.14640E-04   -0.12772E-07  1167   0.772E-04    0.325E-03
RMM:  28    -0.496586166294E+03   -0.31779E-04   -0.15187E-07  1130   0.649E-04    0.335E-03
RMM:  29    -0.496586187991E+03   -0.21697E-04   -0.11112E-07  1120   0.625E-04    0.228E-03
RMM:  30    -0.496586219527E+03   -0.31535E-04   -0.13855E-07  1044   0.532E-04    0.309E-03
RMM:  31    -0.496586242178E+03   -0.22651E-04   -0.10249E-07  1054   0.533E-04    0.180E-03
RMM:  32    -0.496586270336E+03   -0.28158E-04   -0.11838E-07   957   0.447E-04    0.241E-03
RMM:  33    -0.496586293284E+03   -0.22948E-04   -0.10009E-07   921   0.452E-04    0.152E-03
RMM:  34    -0.496586311997E+03   -0.18712E-04   -0.84514E-08   934   0.403E-04    0.177E-03
RMM:  35    -0.496586339614E+03   -0.27617E-04   -0.17901E-07  1016   0.444E-04    0.138E-03
RMM:  36    -0.496586350643E+03   -0.11029E-04   -0.65848E-08   897   0.365E-04    0.130E-03
RMM:  37    -0.496586367387E+03   -0.16744E-04   -0.12597E-07   861   0.369E-04    0.104E-03
RMM:  38    -0.496586373457E+03   -0.60698E-05   -0.43364E-08   743   0.317E-04    0.753E-04
RMM:  39    -0.496586380465E+03   -0.70078E-05   -0.68031E-08   744   0.323E-04    0.711E-04
RMM:  40    -0.496586381891E+03   -0.14262E-05   -0.14894E-08   519   0.274E-04    0.417E-04
RMM:  41    -0.496586382890E+03   -0.99944E-06   -0.19273E-08   480   0.275E-04
   5 F= -.53199395E+03 E0= -.53200587E+03  d E =-.111221E+01  mag=    92.2039
       N       E                     dE             d eps       ncg     rms          rms(c)
DAV:   1    -0.496439874429E+03    0.14651E+00   -0.15045E+02  2096   0.151E+01    0.521E+00
RMM:   2    -0.497241102968E+03   -0.80123E+00   -0.29503E+00  2100   0.421E+00    0.114E+01
RMM:   3    -0.497559580011E+03   -0.31848E+00   -0.14275E+00  2192   0.240E+00    0.148E+01
RMM:   4    -0.497150206075E+03    0.40937E+00   -0.48232E-01  2102   0.141E+00    0.759E+00
RMM:   5    -0.496994588817E+03    0.15562E+00   -0.13172E-01  2103   0.738E-01    0.402E+00
RMM:   6    -0.496960117912E+03    0.34471E-01   -0.52123E-02  2102   0.455E-01    0.287E+00
RMM:   7    -0.496946458406E+03    0.13660E-01   -0.32148E-02  2100   0.366E-01    0.222E+00
RMM:   8    -0.496933843872E+03    0.12615E-01   -0.18367E-02  2100   0.285E-01    0.123E+00
RMM:   9    -0.496934135416E+03   -0.29154E-03   -0.15330E-02  2102   0.247E-01    0.146E+00
RMM:  10    -0.496931729915E+03    0.24055E-02   -0.15848E-02  2104   0.251E-01    0.130E+00
RMM:  11    -0.496931550162E+03    0.17975E-03   -0.13357E-02  2100   0.232E-01    0.131E+00
RMM:  12    -0.496926714162E+03    0.48360E-02   -0.64878E-03  2100   0.165E-01    0.580E-01
RMM:  13    -0.496926327629E+03    0.38653E-03   -0.20208E-03  2101   0.927E-02    0.481E-01
RMM:  14    -0.496925619296E+03    0.70833E-03   -0.84294E-04  2100   0.609E-02    0.258E-01
RMM:  15    -0.496925488106E+03    0.13119E-03   -0.33663E-04  2100   0.385E-02    0.170E-01
RMM:  16    -0.496925421984E+03    0.66122E-04   -0.19935E-04  2098   0.277E-02    0.154E-01
RMM:  17    -0.496925378762E+03    0.43223E-04   -0.13363E-04  2100   0.236E-02    0.959E-02
RMM:  18    -0.496925435701E+03   -0.56939E-04   -0.85512E-05  2098   0.179E-02    0.105E-01
RMM:  19    -0.496925468245E+03   -0.32544E-04   -0.51523E-05  2101   0.143E-02    0.608E-02
RMM:  20    -0.496925543282E+03   -0.75037E-04   -0.28274E-05  2096   0.105E-02    0.636E-02
RMM:  21    -0.496925616666E+03   -0.73384E-04   -0.16158E-05  2095   0.811E-03    0.280E-02
RMM:  22    -0.496925695204E+03   -0.78538E-04   -0.77125E-06  1867   0.563E-03    0.328E-02
RMM:  23    -0.496925790643E+03   -0.95440E-04   -0.39128E-06  1647   0.422E-03    0.182E-02
RMM:  24    -0.496925854069E+03   -0.63425E-04   -0.19982E-06  1343   0.307E-03    0.167E-02
RMM:  25    -0.496925995940E+03   -0.14187E-03   -0.15436E-06  1260   0.253E-03    0.127E-02
RMM:  26    -0.496926061630E+03   -0.65690E-04   -0.78409E-07  1205   0.197E-03    0.852E-03
RMM:  27    -0.496926200216E+03   -0.13859E-03   -0.90918E-07  1236   0.156E-03    0.101E-02
RMM:  28    -0.496926315265E+03   -0.11505E-03   -0.78268E-07  1221   0.166E-03    0.618E-03
RMM:  29    -0.496926485499E+03   -0.17023E-03   -0.10954E-06  1262   0.139E-03    0.909E-03
RMM:  30    -0.496926619512E+03   -0.13401E-03   -0.85503E-07  1237   0.143E-03    0.459E-03
RMM:  31    -0.496926766549E+03   -0.14704E-03   -0.98082E-07  1256   0.121E-03    0.691E-03
RMM:  32    -0.496926907453E+03   -0.14090E-03   -0.10490E-06  1259   0.127E-03    0.404E-03
RMM:  33    -0.496927012669E+03   -0.10522E-03   -0.80545E-07  1228   0.103E-03    0.554E-03
RMM:  34    -0.496927141259E+03   -0.12859E-03   -0.14187E-06  1275   0.118E-03    0.332E-03
RMM:  35    -0.496927193115E+03   -0.51856E-04   -0.53238E-07  1172   0.873E-04    0.359E-03
RMM:  36    -0.496927252639E+03   -0.59524E-04   -0.89694E-07  1251   0.876E-04    0.265E-03
RMM:  37    -0.496927265025E+03   -0.12385E-04   -0.18202E-07  1043   0.617E-04    0.183E-03
RMM:  38    -0.496927275831E+03   -0.10806E-04   -0.22298E-07  1036   0.523E-04    0.190E-03
RMM:  39    -0.496927276038E+03   -0.20687E-06   -0.12611E-07   980   0.479E-04
   6 F= -.53231488E+03 E0= -.53232738E+03  d E =-.320928E+00  mag=    92.2263
       N       E                     dE             d eps       ncg     rms          rms(c)
DAV:   1    -0.496881102039E+03    0.46174E-01   -0.26982E+01  2120   0.634E+00    0.212E+00
RMM:   2    -0.497012994906E+03   -0.13189E+00   -0.43850E-01  2100   0.157E+00    0.451E+00
RMM:   3    -0.497090248196E+03   -0.77253E-01   -0.22704E-01  2191   0.952E-01    0.660E+00
RMM:   4    -0.497044878803E+03    0.45369E-01   -0.85641E-02  2101   0.592E-01    0.459E+00
RMM:   5    -0.496970972223E+03    0.73907E-01   -0.31044E-02  2103   0.364E-01    0.141E+00
RMM:   6    -0.496966255514E+03    0.47167E-02   -0.85337E-03  2100   0.188E-01    0.767E-01
RMM:   7    -0.496966554909E+03   -0.29939E-03   -0.41307E-03  2100   0.131E-01    0.916E-01
RMM:   8    -0.496964022079E+03    0.25328E-02   -0.27004E-03  2100   0.108E-01    0.416E-01
RMM:   9    -0.496964914588E+03   -0.89251E-03   -0.29664E-03  2102   0.108E-01    0.699E-01
RMM:  10    -0.496964075461E+03    0.83913E-03   -0.31316E-03  2103   0.110E-01    0.544E-01
RMM:  11    -0.496963574810E+03    0.50065E-03   -0.18543E-03  2101   0.866E-02    0.401E-01
RMM:  12    -0.496963120295E+03    0.45451E-03   -0.75406E-04  2101   0.557E-02    0.191E-01
RMM:  13    -0.496963036636E+03    0.83658E-04   -0.18598E-04  2100   0.283E-02    0.119E-01
RMM:  14    -0.496962993734E+03    0.42902E-04   -0.83769E-05  2098   0.188E-02    0.963E-02
RMM:  15    -0.496962967982E+03    0.25753E-04   -0.39579E-05  2098   0.131E-02    0.501E-02
RMM:  16    -0.496962962751E+03    0.52303E-05   -0.25392E-05  2096   0.958E-03    0.533E-02
RMM:  17    -0.496962962761E+03   -0.10012E-07   -0.19686E-05  2096   0.865E-03    0.324E-02
RMM:  18    -0.496962983015E+03   -0.20253E-04   -0.12711E-05  2096   0.684E-03    0.445E-02
RMM:  19    -0.496962998092E+03   -0.15078E-04   -0.74023E-06  1940   0.537E-03    0.210E-02
RMM:  20    -0.496963012721E+03   -0.14629E-04   -0.26149E-06  1489   0.353E-03    0.183E-02
RMM:  21    -0.496963038525E+03   -0.25804E-04   -0.15258E-06  1207   0.289E-03    0.107E-02
RMM:  22    -0.496963057360E+03   -0.18835E-04   -0.78486E-07  1176   0.204E-03    0.891E-03
RMM:  23    -0.496963087306E+03   -0.29946E-04   -0.45103E-07  1191   0.148E-03    0.716E-03
RMM:  24    -0.496963104289E+03   -0.16983E-04   -0.24758E-07  1168   0.111E-03    0.467E-03
RMM:  25    -0.496963141886E+03   -0.37597E-04   -0.21106E-07  1193   0.828E-04    0.449E-03
RMM:  26    -0.496963164260E+03   -0.22374E-04   -0.13066E-07  1148   0.758E-04    0.295E-03
RMM:  27    -0.496963202598E+03   -0.38338E-04   -0.15725E-07  1101   0.584E-04    0.382E-03
RMM:  28    -0.496963240914E+03   -0.38316E-04   -0.17338E-07  1132   0.670E-04    0.254E-03
RMM:  29    -0.496963293949E+03   -0.53035E-04   -0.27188E-07  1119   0.595E-04    0.328E-03
RMM:  30    -0.496963325045E+03   -0.31095E-04   -0.15368E-07  1068   0.587E-04    0.177E-03
RMM:  31    -0.496963361838E+03   -0.36794E-04   -0.19457E-07  1032   0.502E-04    0.271E-03
RMM:  32    -0.496963396375E+03   -0.34537E-04   -0.20662E-07   987   0.527E-04    0.162E-03
RMM:  33    -0.496963419631E+03   -0.23255E-04   -0.14687E-07   996   0.460E-04    0.211E-03
RMM:  34    -0.496963447147E+03   -0.27517E-04   -0.24930E-07  1046   0.497E-04    0.117E-03
RMM:  35    -0.496963456112E+03   -0.89643E-05   -0.75938E-08   883   0.384E-04    0.112E-03
RMM:  36    -0.496963466596E+03   -0.10484E-04   -0.11170E-07   838   0.364E-04    0.782E-04
RMM:  37    -0.496963468549E+03   -0.19533E-05   -0.25844E-08   675   0.298E-04    0.678E-04
RMM:  38    -0.496963469482E+03   -0.93356E-06   -0.39910E-08   658   0.292E-04
   7 F= -.53234544E+03 E0= -.53235826E+03  d E =-.351485E+00  mag=    92.2324
       N       E                     dE             d eps       ncg     rms          rms(c)
DAV:   1    -0.496930774549E+03    0.32694E-01   -0.54831E+01  2104   0.897E+00    0.300E+00
RMM:   2    -0.497197763025E+03   -0.26699E+00   -0.94913E-01  2100   0.234E+00    0.614E+00
RMM:   3    -0.497393535846E+03   -0.19577E+00   -0.45201E-01  2196   0.134E+00    0.962E+00
RMM:   4    -0.497276600410E+03    0.11694E+00   -0.17314E-01  2104   0.843E-01    0.631E+00
RMM:   5    -0.497118193291E+03    0.15841E+00   -0.67625E-02  2101   0.536E-01    0.205E+00
RMM:   6    -0.497108980472E+03    0.92128E-02   -0.19767E-02  2100   0.291E-01    0.116E+00
RMM:   7    -0.497107378848E+03    0.16016E-02   -0.80247E-03  2101   0.184E-01    0.114E+00
RMM:   8    -0.497103701937E+03    0.36769E-02   -0.48903E-03  2100   0.145E-01    0.651E-01
RMM:   9    -0.497104733826E+03   -0.10319E-02   -0.55548E-03  2104   0.147E-01    0.968E-01
RMM:  10    -0.497102882751E+03    0.18511E-02   -0.63574E-03  2108   0.155E-01    0.685E-01
RMM:  11    -0.497102446010E+03    0.43674E-03   -0.44427E-03  2101   0.133E-01    0.678E-01
RMM:  12    -0.497101050585E+03    0.13954E-02   -0.18231E-03  2100   0.878E-02    0.257E-01
RMM:  13    -0.497101004265E+03    0.46320E-04   -0.53766E-04  2100   0.477E-02    0.230E-01
RMM:  14    -0.497100857662E+03    0.14660E-03   -0.21997E-04  2100   0.309E-02    0.108E-01
RMM:  15    -0.497100864831E+03   -0.71692E-05   -0.93498E-05  2097   0.199E-02    0.114E-01
RMM:  16    -0.497100870881E+03   -0.60503E-05   -0.62229E-05  2100   0.155E-02    0.802E-02
RMM:  17    -0.497100916376E+03   -0.45495E-04   -0.44486E-05  2096   0.133E-02    0.637E-02
RMM:  18    -0.497101016585E+03   -0.10021E-03   -0.35476E-05  2098   0.113E-02    0.706E-02
RMM:  19    -0.497101084705E+03   -0.68119E-04   -0.19589E-05  2096   0.874E-03    0.306E-02
RMM:  20    -0.497101165431E+03   -0.80727E-04   -0.83903E-06  1891   0.573E-03    0.345E-02
RMM:  21    -0.497101260406E+03   -0.94975E-04   -0.49900E-06  1739   0.477E-03    0.161E-02
RMM:  22    -0.497101352385E+03   -0.91979E-04   -0.24080E-06  1444   0.333E-03    0.187E-02
RMM:  23    -0.497101463653E+03   -0.11127E-03   -0.16084E-06  1251   0.277E-03    0.109E-02
RMM:  24    -0.497101578075E+03   -0.11442E-03   -0.11146E-06  1231   0.204E-03    0.137E-02
RMM:  25    -0.497101717265E+03   -0.13919E-03   -0.10683E-06  1242   0.192E-03    0.108E-02
RMM:  26    -0.497101814939E+03   -0.97674E-04   -0.71046E-07  1217   0.150E-03    0.964E-03
RMM:  27    -0.497102045747E+03   -0.23081E-03   -0.17977E-06  1287   0.171E-03    0.107E-02
RMM:  28    -0.497102212613E+03   -0.16687E-03   -0.14254E-06  1265   0.182E-03    0.814E-03
RMM:  29    -0.497102472483E+03   -0.25987E-03   -0.30106E-06  1364   0.182E-03    0.785E-03
RMM:  30    -0.497102591002E+03   -0.11852E-03   -0.12577E-06  1260   0.155E-03    0.502E-03
RMM:  31    -0.497102711496E+03   -0.12049E-03   -0.14957E-06  1279   0.137E-03    0.705E-03
RMM:  32    -0.497102785368E+03   -0.73872E-04   -0.10542E-06  1258   0.130E-03    0.359E-03
RMM:  33    -0.497102824446E+03   -0.39078E-04   -0.63038E-07  1231   0.963E-04    0.458E-03
RMM:  34    -0.497102845771E+03   -0.21325E-04   -0.66019E-07  1277   0.974E-04    0.234E-03
RMM:  35    -0.497102847286E+03   -0.15159E-05   -0.19595E-07  1107   0.645E-04    0.248E-03
RMM:  36    -0.497102842725E+03    0.45610E-05   -0.20229E-07  1045   0.557E-04    0.187E-03
RMM:  37    -0.497102840386E+03    0.23395E-05   -0.53595E-08   900   0.430E-04    0.124E-03
RMM:  38    -0.497102838399E+03    0.19868E-05   -0.30730E-08   808   0.335E-04    0.141E-03
RMM:  39    -0.497102837912E+03    0.48660E-06   -0.12363E-08   671   0.298E-04
   8 F= -.53244709E+03 E0= -.53245974E+03  d E =-.101658E+00  mag=    92.2432
       N       E                     dE             d eps       ncg     rms          rms(c)
DAV:   1    -0.497097003977E+03    0.58344E-02   -0.10282E+01  2128   0.388E+00    0.127E+00
RMM:   2    -0.497145521883E+03   -0.48518E-01   -0.16591E-01  2100   0.955E-01    0.256E+00
RMM:   3    -0.497186061056E+03   -0.40539E-01   -0.78259E-02  2204   0.554E-01    0.421E+00
RMM:   4    -0.497161366119E+03    0.24695E-01   -0.31700E-02  2104   0.361E-01    0.280E+00
RMM:   5    -0.497131183421E+03    0.30183E-01   -0.13238E-02  2100   0.240E-01    0.845E-01
RMM:   6    -0.497129340788E+03    0.18426E-02   -0.28659E-03  2100   0.111E-01    0.367E-01
RMM:   7    -0.497129308384E+03    0.32404E-04   -0.10968E-03  2102   0.671E-02    0.455E-01
RMM:   8    -0.497128628438E+03    0.67995E-03   -0.79854E-04  2101   0.571E-02    0.255E-01
RMM:   9    -0.497128975921E+03   -0.34748E-03   -0.11431E-03  2103   0.660E-02    0.464E-01
RMM:  10    -0.497128388324E+03    0.58760E-03   -0.12301E-03  2108   0.672E-02    0.277E-01
RMM:  11    -0.497128230039E+03    0.15829E-03   -0.65296E-04  2101   0.513E-02    0.228E-01
RMM:  12    -0.497128079799E+03    0.15024E-03   -0.22511E-04  2100   0.306E-02    0.967E-02
RMM:  13    -0.497128059503E+03    0.20295E-04   -0.57879E-05  2100   0.156E-02    0.632E-02
RMM:  14    -0.497128055270E+03    0.42337E-05   -0.23820E-05  2096   0.981E-03    0.411E-02
RMM:  15    -0.497128056658E+03   -0.13888E-05   -0.12038E-05  2089   0.702E-03    0.360E-02
RMM:  16    -0.497128070384E+03   -0.13725E-04   -0.10750E-05  2096   0.606E-03    0.313E-02
RMM:  17    -0.497128087400E+03   -0.17016E-04   -0.78124E-06  2026   0.539E-03    0.221E-02
RMM:  18    -0.497128122918E+03   -0.35518E-04   -0.54136E-06  1829   0.445E-03    0.282E-02
RMM:  19    -0.497128142441E+03   -0.19523E-04   -0.27835E-06  1470   0.374E-03    0.117E-02
RMM:  20    -0.497128164040E+03   -0.21599E-04   -0.11660E-06  1187   0.238E-03    0.135E-02
RMM:  21    -0.497128192523E+03   -0.28482E-04   -0.71614E-07  1187   0.200E-03    0.664E-03
RMM:  22    -0.497128217875E+03   -0.25352E-04   -0.35702E-07  1178   0.131E-03    0.665E-03
RMM:  23    -0.497128256633E+03   -0.38758E-04   -0.28495E-07  1191   0.106E-03    0.460E-03
RMM:  24    -0.497128287532E+03   -0.30900E-04   -0.19562E-07  1179   0.832E-04    0.555E-03
RMM:  25    -0.497128342300E+03   -0.54767E-04   -0.28717E-07  1199   0.803E-04    0.456E-03
RMM:  26    -0.497128379852E+03   -0.37552E-04   -0.19798E-07  1127   0.740E-04    0.389E-03
RMM:  27    -0.497128458232E+03   -0.78379E-04   -0.54068E-07  1227   0.815E-04    0.450E-03
RMM:  28    -0.497128508853E+03   -0.50622E-04   -0.38040E-07  1193   0.853E-04    0.323E-03
RMM:  29    -0.497128568814E+03   -0.59961E-04   -0.56847E-07  1191   0.768E-04    0.291E-03
RMM:  30    -0.497128596022E+03   -0.27208E-04   -0.24994E-07  1128   0.682E-04    0.195E-03
RMM:  31    -0.497128622295E+03   -0.26272E-04   -0.27583E-07  1080   0.583E-04    0.278E-03
RMM:  32    -0.497128635862E+03   -0.13568E-04   -0.16120E-07  1041   0.545E-04    0.145E-03
RMM:  33    -0.497128642850E+03   -0.69875E-05   -0.94928E-08   959   0.422E-04    0.177E-03
RMM:  34    -0.497128645653E+03   -0.28029E-05   -0.11250E-07   940   0.403E-04    0.895E-04
RMM:  35    -0.497128645071E+03    0.58183E-06   -0.26959E-08   716   0.311E-04
   9 F= -.53245726E+03 E0= -.53246984E+03  d E =-.111823E+00  mag=    92.2458
       N       E                     dE             d eps       ncg     rms          rms(c)
DAV:   1    -0.497118081118E+03    0.10565E-01   -0.28034E+01  2096   0.650E+00    0.229E+00
RMM:   2    -0.497293662853E+03   -0.17558E+00   -0.45712E-01  2100   0.160E+00    0.545E+00
RMM:   3    -0.497402076150E+03   -0.10841E+00   -0.23452E-01  2169   0.965E-01    0.758E+00
RMM:   4    -0.497330924704E+03    0.71151E-01   -0.10019E-01  2103   0.643E-01    0.525E+00
RMM:   5    -0.497217748231E+03    0.11318E+00   -0.47602E-02  2100   0.459E-01    0.144E+00
RMM:   6    -0.497212994585E+03    0.47536E-02   -0.11463E-02  2100   0.219E-01    0.773E-01
RMM:   7    -0.497211910948E+03    0.10836E-02   -0.35396E-03  2104   0.121E-01    0.705E-01
RMM:   8    -0.497210473587E+03    0.14374E-02   -0.19313E-03  2100   0.912E-02    0.439E-01
RMM:   9    -0.497210515763E+03   -0.42176E-04   -0.21039E-03  2102   0.909E-02    0.593E-01
RMM:  10    -0.497209605362E+03    0.91040E-03   -0.24532E-03  2101   0.962E-02    0.434E-01
RMM:  11    -0.497209306274E+03    0.29909E-03   -0.18478E-03  2101   0.850E-02    0.423E-01
RMM:  12    -0.497208782843E+03    0.52343E-03   -0.84752E-04  2101   0.592E-02    0.169E-01
RMM:  13    -0.497208863505E+03   -0.80662E-04   -0.29312E-04  2101   0.349E-02    0.218E-01
RMM:  14    -0.497208761236E+03    0.10227E-03   -0.13656E-04  2100   0.245E-02    0.948E-02
RMM:  15    -0.497208786573E+03   -0.25337E-04   -0.49648E-05  2096   0.146E-02    0.675E-02
RMM:  16    -0.497208852619E+03   -0.66046E-04   -0.25506E-05  2096   0.992E-03    0.582E-02
RMM:  17    -0.497208915027E+03   -0.62408E-04   -0.17452E-05  2096   0.847E-03    0.356E-02
RMM:  18    -0.497209065039E+03   -0.15001E-03   -0.15224E-05  2096   0.740E-03    0.441E-02
RMM:  19    -0.497209182834E+03   -0.11780E-03   -0.87862E-06  1984   0.578E-03    0.202E-02
RMM:  20    -0.497209299859E+03   -0.11702E-03   -0.48207E-06  1735   0.440E-03    0.279E-02
RMM:  21    -0.497209449549E+03   -0.14969E-03   -0.30440E-06  1512   0.370E-03    0.121E-02
RMM:  22    -0.497209558444E+03   -0.10889E-03   -0.14831E-06  1245   0.258E-03    0.141E-02
RMM:  23    -0.497209752622E+03   -0.19418E-03   -0.16648E-06  1282   0.238E-03    0.113E-02
RMM:  24    -0.497209882071E+03   -0.12945E-03   -0.10038E-06  1229   0.191E-03    0.110E-02
RMM:  25    -0.497210107740E+03   -0.22567E-03   -0.15103E-06  1278   0.175E-03    0.100E-02
RMM:  26    -0.497210256577E+03   -0.14884E-03   -0.96935E-07  1236   0.166E-03    0.891E-03
RMM:  27    -0.497210614481E+03   -0.35790E-03   -0.35503E-06  1404   0.203E-03    0.112E-02
RMM:  28    -0.497210823259E+03   -0.20878E-03   -0.20517E-06  1289   0.189E-03    0.683E-03
RMM:  29    -0.497211039803E+03   -0.21654E-03   -0.26281E-06  1333   0.169E-03    0.734E-03
RMM:  30    -0.497211148048E+03   -0.10824E-03   -0.13255E-06  1266   0.149E-03    0.390E-03
RMM:  31    -0.497211214237E+03   -0.66189E-04   -0.82341E-07  1247   0.109E-03    0.536E-03
RMM:  32    -0.497211256027E+03   -0.41790E-04   -0.58231E-07  1207   0.101E-03    0.288E-03
RMM:  33    -0.497211277607E+03   -0.21580E-04   -0.36212E-07  1178   0.759E-04    0.352E-03
RMM:  34    -0.497211285638E+03   -0.80316E-05   -0.37652E-07  1223   0.751E-04    0.202E-03
RMM:  35    -0.497211284995E+03    0.64305E-06   -0.13975E-07  1005   0.528E-04
  10 F= -.53250801E+03 E0= -.53252016E+03  d E =-.507532E-01  mag=    92.2560
       N       E                     dE             d eps       ncg     rms          rms(c)
DAV:   1    -0.497174830808E+03    0.36455E-01   -0.24370E+01  2120   0.606E+00    0.213E+00
RMM:   2    -0.497326483290E+03   -0.15165E+00   -0.39470E-01  2100   0.148E+00    0.505E+00
RMM:   3    -0.497419448570E+03   -0.92965E-01   -0.20297E-01  2167   0.898E-01    0.700E+00
RMM:   4    -0.497359237170E+03    0.60211E-01   -0.86006E-02  2103   0.596E-01    0.491E+00
RMM:   5    -0.497261066892E+03    0.98170E-01   -0.40942E-02  2100   0.425E-01    0.131E+00
RMM:   6    -0.497257033847E+03    0.40330E-02   -0.94816E-03  2100   0.200E-01    0.687E-01
RMM:   7    -0.497256180835E+03    0.85301E-03   -0.29152E-03  2104   0.109E-01    0.647E-01
RMM:   8    -0.497254928167E+03    0.12527E-02   -0.16478E-03  2100   0.841E-02    0.407E-01
RMM:   9    -0.497254963119E+03   -0.34952E-04   -0.18088E-03  2102   0.843E-02    0.554E-01
RMM:  10    -0.497254144997E+03    0.81812E-03   -0.21506E-03  2099   0.896E-02    0.409E-01
RMM:  11    -0.497253877978E+03    0.26702E-03   -0.15815E-03  2101   0.787E-02    0.396E-01
RMM:  12    -0.497253427106E+03    0.45087E-03   -0.71812E-04  2100   0.544E-02    0.167E-01
RMM:  13    -0.497253485041E+03   -0.57935E-04   -0.24637E-04  2101   0.319E-02    0.200E-01
RMM:  14    -0.497253409383E+03    0.75658E-04   -0.11382E-04  2098   0.223E-02    0.889E-02
RMM:  15    -0.497253430071E+03   -0.20688E-04   -0.41746E-05  2096   0.135E-02    0.564E-02
RMM:  16    -0.497253497596E+03   -0.67525E-04   -0.21602E-05  2096   0.909E-03    0.552E-02
RMM:  17    -0.497253556380E+03   -0.58784E-04   -0.15133E-05  2096   0.784E-03    0.314E-02
RMM:  18    -0.497253693046E+03   -0.13667E-03   -0.12999E-05  2092   0.684E-03    0.407E-02
RMM:  19    -0.497253809296E+03   -0.11625E-03   -0.75528E-06  1937   0.535E-03    0.185E-02
RMM:  20    -0.497253912464E+03   -0.10317E-03   -0.39959E-06  1673   0.408E-03    0.244E-02
RMM:  21    -0.497254052854E+03   -0.14039E-03   -0.23783E-06  1357   0.333E-03    0.114E-02
RMM:  22    -0.497254149840E+03   -0.96986E-04   -0.12593E-06  1229   0.238E-03    0.127E-02
RMM:  23    -0.497254331364E+03   -0.18152E-03   -0.14107E-06  1268   0.215E-03    0.108E-02
RMM:  24    -0.497254451055E+03   -0.11969E-03   -0.91332E-07  1227   0.181E-03    0.103E-02
RMM:  25    -0.497254660721E+03   -0.20967E-03   -0.13707E-06  1273   0.166E-03    0.103E-02
RMM:  26    -0.497254807674E+03   -0.14695E-03   -0.10027E-06  1240   0.163E-03    0.806E-03
RMM:  27    -0.497255113888E+03   -0.30621E-03   -0.29360E-06  1362   0.190E-03    0.111E-02
RMM:  28    -0.497255330093E+03   -0.21621E-03   -0.22776E-06  1299   0.190E-03    0.594E-03
RMM:  29    -0.497255499432E+03   -0.16934E-03   -0.20006E-06  1290   0.153E-03    0.664E-03
RMM:  30    -0.497255597831E+03   -0.98399E-04   -0.12400E-06  1263   0.142E-03    0.349E-03
RMM:  31    -0.497255648606E+03   -0.50775E-04   -0.63424E-07  1234   0.100E-03    0.473E-03
RMM:  32    -0.497255685535E+03   -0.36930E-04   -0.52614E-07  1197   0.931E-04    0.268E-03
RMM:  33    -0.497255701772E+03   -0.16236E-04   -0.28832E-07  1167   0.711E-04    0.306E-03
RMM:  34    -0.497255707376E+03   -0.56039E-05   -0.32376E-07  1191   0.686E-04    0.183E-03
RMM:  35    -0.497255706361E+03    0.10145E-05   -0.10699E-07   986   0.494E-04    0.162E-03
RMM:  36    -0.497255702631E+03    0.37304E-05   -0.70231E-08   869   0.381E-04    0.118E-03
RMM:  37    -0.497255701424E+03    0.12068E-05   -0.22271E-08   761   0.330E-04    0.116E-03
RMM:  38    -0.497255700752E+03    0.67207E-06   -0.12549E-08   579   0.293E-04
  11 F= -.53252336E+03 E0= -.53253507E+03  d E =-.661046E-01  mag=    92.2649
       N       E                     dE             d eps       ncg     rms          rms(c)
DAV:   1    -0.497202216443E+03    0.53485E-01   -0.37300E+01  2096   0.755E+00    0.269E+00
RMM:   2    -0.497433457340E+03   -0.23124E+00   -0.59829E-01  2101   0.181E+00    0.621E+00
RMM:   3    -0.497576221812E+03   -0.14276E+00   -0.32631E-01  2137   0.115E+00    0.858E+00
RMM:   4    -0.497496420470E+03    0.79801E-01   -0.13478E-01  2103   0.745E-01    0.622E+00
RMM:   5    -0.497334486417E+03    0.16193E+00   -0.62838E-02  2100   0.526E-01    0.161E+00
RMM:   6    -0.497328556962E+03    0.59295E-02   -0.15150E-02  2100   0.251E-01    0.883E-01
RMM:   7    -0.497327188398E+03    0.13686E-02   -0.50725E-03  2101   0.145E-01    0.824E-01
RMM:   8    -0.497325270108E+03    0.19183E-02   -0.26993E-03  2100   0.108E-01    0.535E-01
RMM:   9    -0.497325069964E+03    0.20014E-03   -0.27876E-03  2101   0.105E-01    0.687E-01
RMM:  10    -0.497324084120E+03    0.98584E-03   -0.31771E-03  2101   0.110E-01    0.554E-01
RMM:  11    -0.497323525812E+03    0.55831E-03   -0.23958E-03  2105   0.980E-02    0.475E-01
RMM:  12    -0.497322873694E+03    0.65212E-03   -0.11315E-03  2100   0.685E-02    0.212E-01
RMM:  13    -0.497323030484E+03   -0.15679E-03   -0.41826E-04  2100   0.417E-02    0.260E-01
RMM:  14    -0.497322952315E+03    0.78169E-04   -0.18618E-04  2099   0.285E-02    0.118E-01
RMM:  15    -0.497323009965E+03   -0.57649E-04   -0.71464E-05  2098   0.177E-02    0.731E-02
RMM:  16    -0.497323169525E+03   -0.15956E-03   -0.33257E-05  2097   0.111E-02    0.661E-02
RMM:  17    -0.497323286546E+03   -0.11702E-03   -0.22188E-05  2096   0.950E-03    0.398E-02
RMM:  18    -0.497323585799E+03   -0.29925E-03   -0.20452E-05  2096   0.825E-03    0.521E-02
RMM:  19    -0.497323777307E+03   -0.19151E-03   -0.12123E-05  2079   0.667E-03    0.255E-02
RMM:  20    -0.497323993966E+03   -0.21666E-03   -0.68148E-06  1809   0.505E-03    0.309E-02
RMM:  21    -0.497324232558E+03   -0.23859E-03   -0.40639E-06  1643   0.417E-03    0.163E-02
RMM:  22    -0.497324395182E+03   -0.16262E-03   -0.22716E-06  1374   0.301E-03    0.198E-02
RMM:  23    -0.497324711411E+03   -0.31623E-03   -0.26440E-06  1396   0.282E-03    0.147E-02
RMM:  24    -0.497324922121E+03   -0.21071E-03   -0.17614E-06  1277   0.243E-03    0.147E-02
RMM:  25    -0.497325321469E+03   -0.39935E-03   -0.31219E-06  1408   0.239E-03    0.128E-02
RMM:  26    -0.497325584759E+03   -0.26329E-03   -0.20733E-06  1290   0.229E-03    0.122E-02
RMM:  27    -0.497326114003E+03   -0.52924E-03   -0.60225E-06  1564   0.268E-03    0.130E-02
RMM:  28    -0.497326418330E+03   -0.30433E-03   -0.33226E-06  1365   0.230E-03    0.875E-03
RMM:  29    -0.497326733585E+03   -0.31525E-03   -0.43888E-06  1468   0.215E-03    0.889E-03
RMM:  30    -0.497326861613E+03   -0.12803E-03   -0.16840E-06  1279   0.168E-03    0.519E-03
RMM:  31    -0.497326944264E+03   -0.82651E-04   -0.11278E-06  1262   0.131E-03    0.607E-03
RMM:  32    -0.497326996678E+03   -0.52415E-04   -0.86367E-07  1259   0.122E-03    0.296E-03
RMM:  33    -0.497327017870E+03   -0.21192E-04   -0.60062E-07  1276   0.926E-04    0.398E-03
RMM:  34    -0.497327021582E+03   -0.37119E-05   -0.43793E-07  1238   0.900E-04    0.245E-03
RMM:  35    -0.497327018928E+03    0.26543E-05   -0.18818E-07  1078   0.613E-04    0.232E-03
RMM:  36    -0.497327012863E+03    0.60648E-05   -0.11733E-07  1021   0.505E-04    0.170E-03
RMM:  37    -0.497327011208E+03    0.16551E-05   -0.39926E-08   898   0.405E-04    0.166E-03
RMM:  38    -0.497327010160E+03    0.10480E-05   -0.31677E-08   827   0.337E-04    0.142E-03
RMM:  39    -0.497327011145E+03   -0.98518E-06   -0.13595E-08   699   0.306E-04
  12 F= -.53255680E+03 E0= -.53256759E+03  d E =-.334343E-01  mag=    92.2893
       N       E                     dE             d eps       ncg     rms          rms(c)
DAV:   1    -0.497330399016E+03   -0.33889E-02   -0.16788E+00  2160   0.160E+00    0.564E-01
RMM:   2    -0.497341440112E+03   -0.11041E-01   -0.26115E-02  2100   0.369E-01    0.139E+00
RMM:   3    -0.497346471891E+03   -0.50318E-02   -0.13510E-02  2153   0.233E-01    0.175E+00
RMM:   4    -0.497343550081E+03    0.29218E-02   -0.58681E-03  2101   0.154E-01    0.137E+00
RMM:   5    -0.497336160876E+03    0.73892E-02   -0.29414E-03  2100   0.115E-01    0.320E-01
RMM:   6    -0.497335893613E+03    0.26726E-03   -0.50384E-04  2100   0.456E-02    0.129E-01
RMM:   7    -0.497335852339E+03    0.41274E-04   -0.17144E-04  2099   0.264E-02    0.179E-01
RMM:   8    -0.497335684385E+03    0.16795E-03   -0.12581E-04  2101   0.228E-02    0.107E-01
RMM:   9    -0.497335643557E+03    0.40828E-04   -0.12873E-04  2100   0.226E-02    0.140E-01
RMM:  10    -0.497335539455E+03    0.10410E-03   -0.15168E-04  2101   0.235E-02    0.132E-01
RMM:  11    -0.497335462649E+03    0.76806E-04   -0.84168E-05  2099   0.186E-02    0.647E-02
RMM:  12    -0.497335454618E+03    0.80304E-05   -0.26947E-05  2096   0.104E-02    0.394E-02
RMM:  13    -0.497335457775E+03   -0.31566E-05   -0.74399E-06  1851   0.557E-03    0.253E-02
RMM:  14    -0.497335470378E+03   -0.12603E-04   -0.30651E-06  1573   0.383E-03    0.207E-02
RMM:  15    -0.497335482523E+03   -0.12146E-04   -0.17588E-06  1227   0.306E-03    0.104E-02
RMM:  16    -0.497335502123E+03   -0.19600E-04   -0.12332E-06  1198   0.229E-03    0.136E-02
RMM:  17    -0.497335529039E+03   -0.26916E-04   -0.12534E-06  1207   0.240E-03    0.681E-03
RMM:  18    -0.497335558503E+03   -0.29464E-04   -0.89401E-07  1199   0.196E-03    0.915E-03
RMM:  19    -0.497335586312E+03   -0.27809E-04   -0.60193E-07  1189   0.175E-03    0.497E-03
RMM:  20    -0.497335604148E+03   -0.17836E-04   -0.26088E-07  1174   0.110E-03    0.479E-03
RMM:  21    -0.497335637398E+03   -0.33250E-04   -0.19192E-07  1188   0.837E-04    0.367E-03
RMM:  22    -0.497335654163E+03   -0.16765E-04   -0.91212E-08  1086   0.600E-04    0.341E-03
RMM:  23    -0.497335702211E+03   -0.48048E-04   -0.22708E-07  1176   0.618E-04    0.377E-03
RMM:  24    -0.497335738387E+03   -0.36176E-04   -0.18617E-07  1151   0.670E-04    0.285E-03
RMM:  25    -0.497335796430E+03   -0.58043E-04   -0.37867E-07  1181   0.664E-04    0.369E-03
RMM:  26    -0.497335838043E+03   -0.41613E-04   -0.30474E-07  1142   0.694E-04    0.213E-03
RMM:  27    -0.497335869767E+03   -0.31724E-04   -0.23746E-07  1044   0.570E-04    0.268E-03
RMM:  28    -0.497335899467E+03   -0.29700E-04   -0.27203E-07  1063   0.577E-04    0.150E-03
RMM:  29    -0.497335910419E+03   -0.10952E-04   -0.92650E-08   916   0.436E-04    0.152E-03
RMM:  30    -0.497335923110E+03   -0.12691E-04   -0.13154E-07   943   0.416E-04    0.117E-03
RMM:  31    -0.497335926786E+03   -0.36759E-05   -0.42835E-08   821   0.341E-04    0.879E-04
RMM:  32    -0.497335929800E+03   -0.30138E-05   -0.64168E-08   763   0.316E-04    0.734E-04
RMM:  33    -0.497335929512E+03    0.28800E-06   -0.16629E-08   580   0.283E-04
  13 F= -.53255781E+03 E0= -.53256842E+03  d E =-.344440E-01  mag=    92.2946
       N       E                     dE             d eps       ncg     rms          rms(c)
DAV:   1    -0.497321410256E+03    0.14520E-01   -0.19186E+01  2096   0.537E+00    0.183E+00
RMM:   2    -0.497440163028E+03   -0.11875E+00   -0.29125E-01  2100   0.121E+00    0.451E+00
RMM:   3    -0.497492884783E+03   -0.52722E-01   -0.14436E-01  2160   0.757E-01    0.569E+00
RMM:   4    -0.497461896085E+03    0.30989E-01   -0.63134E-02  2101   0.507E-01    0.446E+00
RMM:   5    -0.497382751651E+03    0.79144E-01   -0.31373E-02  2100   0.375E-01    0.872E-01
RMM:   6    -0.497381586158E+03    0.11655E-02   -0.60620E-03  2100   0.156E-01    0.615E-01
RMM:   7    -0.497380741029E+03    0.84513E-03   -0.22359E-03  2103   0.957E-02    0.570E-01
RMM:   8    -0.497379594368E+03    0.11467E-02   -0.12197E-03  2100   0.728E-02    0.339E-01
RMM:   9    -0.497379683030E+03   -0.88662E-04   -0.16056E-03  2100   0.789E-02    0.543E-01
RMM:  10    -0.497378894114E+03    0.78892E-03   -0.16945E-03  2105   0.791E-02    0.383E-01
RMM:  11    -0.497378619524E+03    0.27459E-03   -0.11366E-03  2100   0.673E-02    0.327E-01
RMM:  12    -0.497378340959E+03    0.27857E-03   -0.48800E-04  2101   0.452E-02    0.145E-01
RMM:  13    -0.497378401435E+03   -0.60476E-04   -0.16185E-04  2101   0.260E-02    0.154E-01
RMM:  14    -0.497378408199E+03   -0.67642E-05   -0.71306E-05  2098   0.177E-02    0.738E-02
RMM:  15    -0.497378458653E+03   -0.50454E-04   -0.28550E-05  2096   0.111E-02    0.512E-02
RMM:  16    -0.497378559275E+03   -0.10062E-03   -0.15965E-05  2096   0.762E-03    0.434E-02
RMM:  17    -0.497378654926E+03   -0.95651E-04   -0.11569E-05  2082   0.670E-03    0.273E-02
RMM:  18    -0.497378856627E+03   -0.20170E-03   -0.10696E-05  2091   0.588E-03    0.339E-02
RMM:  19    -0.497378991880E+03   -0.13525E-03   -0.60097E-06  1801   0.469E-03    0.198E-02
RMM:  20    -0.497379119566E+03   -0.12769E-03   -0.32652E-06  1567   0.383E-03    0.193E-02
RMM:  21    -0.497379285333E+03   -0.16577E-03   -0.19764E-06  1281   0.302E-03    0.116E-02
RMM:  22    -0.497379390028E+03   -0.10469E-03   -0.11351E-06  1226   0.218E-03    0.127E-02
RMM:  23    -0.497379631955E+03   -0.24193E-03   -0.16188E-06  1283   0.202E-03    0.103E-02
RMM:  24    -0.497379797339E+03   -0.16538E-03   -0.11655E-06  1247   0.186E-03    0.114E-02
RMM:  25    -0.497380075290E+03   -0.27795E-03   -0.20511E-06  1312   0.187E-03    0.104E-02
RMM:  26    -0.497380282892E+03   -0.20760E-03   -0.15481E-06  1269   0.181E-03    0.822E-03
RMM:  27    -0.497380641795E+03   -0.35890E-03   -0.40884E-06  1437   0.208E-03    0.984E-03
RMM:  28    -0.497380838440E+03   -0.19664E-03   -0.22264E-06  1299   0.180E-03    0.606E-03
RMM:  29    -0.497380970615E+03   -0.13218E-03   -0.15440E-06  1275   0.140E-03    0.645E-03
RMM:  30    -0.497381055681E+03   -0.85066E-04   -0.10834E-06  1262   0.130E-03    0.320E-03
RMM:  31    -0.497381100308E+03   -0.44627E-04   -0.59953E-07  1223   0.952E-04    0.411E-03
RMM:  32    -0.497381130002E+03   -0.29695E-04   -0.49455E-07  1225   0.903E-04    0.231E-03
RMM:  33    -0.497381138746E+03   -0.87436E-05   -0.27637E-07  1147   0.678E-04    0.290E-03
RMM:  34    -0.497381137296E+03    0.14503E-05   -0.31574E-07  1162   0.644E-04    0.156E-03
RMM:  35    -0.497381134573E+03    0.27228E-05   -0.73326E-08   959   0.459E-04    0.161E-03
RMM:  36    -0.497381130849E+03    0.37236E-05   -0.46090E-08   846   0.359E-04    0.122E-03
RMM:  37    -0.497381129931E+03    0.91823E-06   -0.15449E-08   703   0.309E-04
  14 F= -.53257544E+03 E0= -.53258553E+03  d E =-.176374E-01  mag=    92.3191
       N       E                     dE             d eps       ncg     rms          rms(c)
DAV:   1    -0.497384315740E+03   -0.31849E-02   -0.25540E+00  2160   0.196E+00    0.665E-01
RMM:   2    -0.497401000496E+03   -0.16685E-01   -0.38942E-02  2100   0.440E-01    0.172E+00
RMM:   3    -0.497405918098E+03   -0.49176E-02   -0.18471E-02  2166   0.270E-01    0.199E+00
RMM:   4    -0.497402857812E+03    0.30603E-02   -0.82864E-03  2100   0.183E-01    0.165E+00
RMM:   5    -0.497392365496E+03    0.10492E-01   -0.42570E-03  2100   0.139E-01    0.313E-01
RMM:   6    -0.497392168538E+03    0.19696E-03   -0.66655E-04  2100   0.515E-02    0.179E-01
RMM:   7    -0.497392068204E+03    0.10033E-03   -0.24718E-04  2101   0.318E-02    0.210E-01
RMM:   8    -0.497391825955E+03    0.24225E-03   -0.17448E-04  2102   0.269E-02    0.120E-01
RMM:   9    -0.497391802406E+03    0.23549E-04   -0.21671E-04  2100   0.291E-02    0.197E-01
RMM:  10    -0.497391620507E+03    0.18190E-03   -0.22893E-04  2102   0.286E-02    0.152E-01
RMM:  11    -0.497391533615E+03    0.86892E-04   -0.11986E-04  2099   0.220E-02    0.813E-02
RMM:  12    -0.497391526688E+03    0.69263E-05   -0.37942E-05  2097   0.124E-02    0.474E-02
RMM:  13    -0.497391534905E+03   -0.82168E-05   -0.10884E-05  1945   0.674E-03    0.324E-02
RMM:  14    -0.497391552543E+03   -0.17638E-04   -0.45846E-06  1735   0.456E-03    0.234E-02
RMM:  15    -0.497391570838E+03   -0.18295E-04   -0.26253E-06  1453   0.362E-03    0.142E-02
RMM:  16    -0.497391600344E+03   -0.29506E-04   -0.19531E-06  1248   0.288E-03    0.156E-02
RMM:  17    -0.497391636699E+03   -0.36355E-04   -0.19625E-06  1236   0.306E-03    0.889E-03
RMM:  18    -0.497391683062E+03   -0.46363E-04   -0.15027E-06  1219   0.250E-03    0.118E-02
RMM:  19    -0.497391720049E+03   -0.36986E-04   -0.10104E-06  1200   0.227E-03    0.678E-03
RMM:  20    -0.497391745486E+03   -0.25438E-04   -0.43077E-07  1179   0.142E-03    0.591E-03
RMM:  21    -0.497391789609E+03   -0.44123E-04   -0.29480E-07  1194   0.108E-03    0.466E-03
RMM:  22    -0.497391812514E+03   -0.22904E-04   -0.14572E-07  1165   0.767E-04    0.401E-03
RMM:  23    -0.497391883465E+03   -0.70951E-04   -0.34731E-07  1211   0.740E-04    0.431E-03
RMM:  24    -0.497391931760E+03   -0.48295E-04   -0.25124E-07  1176   0.796E-04    0.426E-03
RMM:  25    -0.497392016156E+03   -0.84396E-04   -0.58928E-07  1233   0.823E-04    0.440E-03
RMM:  26    -0.497392073880E+03   -0.57724E-04   -0.41870E-07  1181   0.813E-04    0.272E-03
RMM:  27    -0.497392132320E+03   -0.58439E-04   -0.51577E-07  1179   0.746E-04    0.343E-03
RMM:  28    -0.497392170189E+03   -0.37869E-04   -0.36662E-07  1133   0.722E-04    0.188E-03
RMM:  29    -0.497392188074E+03   -0.17885E-04   -0.16178E-07   996   0.514E-04    0.204E-03
RMM:  30    -0.497392205432E+03   -0.17359E-04   -0.18112E-07  1009   0.491E-04    0.118E-03
RMM:  31    -0.497392211926E+03   -0.64934E-05   -0.74509E-08   910   0.402E-04    0.131E-03
RMM:  32    -0.497392216786E+03   -0.48605E-05   -0.10134E-07   930   0.378E-04    0.902E-04
RMM:  33    -0.497392216319E+03    0.46712E-06   -0.29660E-08   721   0.318E-04
  15 F= -.53257662E+03 E0= -.53258653E+03  d E =-.188130E-01  mag=    92.3284
       N       E                     dE             d eps       ncg     rms          rms(c)
DAV:   1    -0.497385034131E+03    0.71827E-02   -0.15361E+01  2112   0.478E+00    0.154E+00
RMM:   2    -0.497483195921E+03   -0.98162E-01   -0.23851E-01  2100   0.110E+00    0.412E+00
RMM:   3    -0.497499549840E+03   -0.16354E-01   -0.10125E-01  2204   0.630E-01    0.445E+00
RMM:   4    -0.497484691561E+03    0.14858E-01   -0.47854E-02  2101   0.442E-01    0.375E+00
RMM:   5    -0.497431389327E+03    0.53302E-01   -0.23928E-02  2100   0.329E-01    0.961E-01
RMM:   6    -0.497429020226E+03    0.23691E-02   -0.46493E-03  2100   0.141E-01    0.476E-01
RMM:   7    -0.497428746231E+03    0.27399E-03   -0.15910E-03  2100   0.806E-02    0.533E-01
RMM:   8    -0.497427601170E+03    0.11451E-02   -0.10902E-03  2103   0.675E-02    0.309E-01
RMM:   9    -0.497427691777E+03   -0.90608E-04   -0.13039E-03  2101   0.717E-02    0.475E-01
RMM:  10    -0.497427051307E+03    0.64047E-03   -0.15751E-03  2103   0.752E-02    0.362E-01
RMM:  11    -0.497426732815E+03    0.31849E-03   -0.91712E-04  2101   0.608E-02    0.268E-01
RMM:  12    -0.497426578560E+03    0.15426E-03   -0.37399E-04  2100   0.394E-02    0.132E-01
RMM:  13    -0.497426608677E+03   -0.30117E-04   -0.11840E-04  2100   0.223E-02    0.106E-01
RMM:  14    -0.497426654186E+03   -0.45509E-04   -0.48554E-05  2097   0.145E-02    0.736E-02
RMM:  15    -0.497426690069E+03   -0.35883E-04   -0.22440E-05  2096   0.982E-03    0.409E-02
RMM:  16    -0.497426778221E+03   -0.88151E-04   -0.13609E-05  2096   0.707E-03    0.446E-02
RMM:  17    -0.497426879892E+03   -0.10167E-03   -0.11162E-05  2093   0.639E-03    0.246E-02
RMM:  18    -0.497427047137E+03   -0.16724E-03   -0.96727E-06  2075   0.569E-03    0.335E-02
RMM:  19    -0.497427169537E+03   -0.12240E-03   -0.52665E-06  1755   0.441E-03    0.174E-02
RMM:  20    -0.497427260573E+03   -0.91036E-04   -0.24441E-06  1396   0.341E-03    0.170E-02
RMM:  21    -0.497427406930E+03   -0.14636E-03   -0.15833E-06  1256   0.267E-03    0.104E-02
RMM:  22    -0.497427486723E+03   -0.79793E-04   -0.79222E-07  1208   0.188E-03    0.989E-03
RMM:  23    -0.497427673176E+03   -0.18645E-03   -0.11800E-06  1255   0.173E-03    0.101E-02
RMM:  24    -0.497427809583E+03   -0.13641E-03   -0.90541E-07  1233   0.167E-03    0.849E-03
RMM:  25    -0.497428040923E+03   -0.23134E-03   -0.16166E-06  1282   0.158E-03    0.995E-03
RMM:  26    -0.497428243328E+03   -0.20241E-03   -0.15693E-06  1273   0.174E-03    0.703E-03
RMM:  27    -0.497428502415E+03   -0.25909E-03   -0.26303E-06  1339   0.175E-03    0.904E-03
RMM:  28    -0.497428708008E+03   -0.20559E-03   -0.25229E-06  1315   0.175E-03    0.496E-03
RMM:  29    -0.497428807603E+03   -0.99595E-04   -0.11670E-06  1261   0.125E-03    0.555E-03
RMM:  30    -0.497428884891E+03   -0.77288E-04   -0.10072E-06  1260   0.117E-03    0.297E-03
RMM:  31    -0.497428919809E+03   -0.34918E-04   -0.47392E-07  1173   0.872E-04    0.347E-03
RMM:  32    -0.497428946967E+03   -0.27158E-04   -0.51489E-07  1241   0.828E-04    0.210E-03
RMM:  33    -0.497428950955E+03   -0.39881E-05   -0.20683E-07  1084   0.616E-04    0.229E-03
RMM:  34    -0.497428946657E+03    0.42975E-05   -0.22813E-07  1056   0.549E-04    0.160E-03
RMM:  35    -0.497428943954E+03    0.27033E-05   -0.54948E-08   924   0.424E-04    0.123E-03
RMM:  36    -0.497428941049E+03    0.29045E-05   -0.27317E-08   736   0.320E-04    0.122E-03
RMM:  37    -0.497428940062E+03    0.98761E-06   -0.10573E-08   625   0.291E-04
  16 F= -.53258585E+03 E0= -.53259578E+03  d E =-.923151E-02  mag=    92.3589
       N       E                     dE             d eps       ncg     rms          rms(c)
DAV:   1    -0.497429763538E+03   -0.82249E-03   -0.15260E-02  2160   0.151E-01    0.483E-02
RMM:   2    -0.497429870043E+03   -0.10650E-03   -0.24371E-04  2100   0.351E-02    0.136E-01
RMM:   3    -0.497429871275E+03   -0.12325E-05   -0.99291E-05  2204   0.197E-02    0.134E-01
RMM:   4    -0.497429865053E+03    0.62221E-05   -0.47410E-05  2096   0.139E-02    0.119E-01
RMM:   5    -0.497429814195E+03    0.50858E-04   -0.24277E-05  2090   0.106E-02    0.319E-02
RMM:   6    -0.497429815065E+03   -0.87029E-06   -0.40633E-06  1703   0.427E-03
  17 F= -.53258587E+03 E0= -.53259580E+03  d E =-.924662E-02  mag=    92.3592
       N       E                     dE             d eps       ncg     rms          rms(c)
DAV:   1    -0.497432971006E+03   -0.31568E-02   -0.74202E+00  2096   0.335E+00    0.107E+00
RMM:   2    -0.497477454966E+03   -0.44484E-01   -0.11072E-01  2100   0.760E-01    0.272E+00
RMM:   3    -0.497488935570E+03   -0.11481E-01   -0.48966E-02  2194   0.440E-01    0.312E+00
RMM:   4    -0.497480784294E+03    0.81513E-02   -0.22561E-02  2101   0.304E-01    0.263E+00
RMM:   5    -0.497454813087E+03    0.25971E-01   -0.11290E-02  2100   0.227E-01    0.677E-01
RMM:   6    -0.497453656087E+03    0.11570E-02   -0.21923E-03  2101   0.970E-02    0.319E-01
RMM:   7    -0.497453504070E+03    0.15202E-03   -0.77778E-04  2101   0.564E-02    0.382E-01
RMM:   8    -0.497452782206E+03    0.72186E-03   -0.58312E-04  2102   0.487E-02    0.216E-01
RMM:   9    -0.497452745677E+03    0.36528E-04   -0.62664E-04  2100   0.500E-02    0.312E-01
RMM:  10    -0.497452420097E+03    0.32558E-03   -0.69902E-04  2102   0.507E-02    0.249E-01
RMM:  11    -0.497452206765E+03    0.21333E-03   -0.37522E-04  2100   0.392E-02    0.156E-01
RMM:  12    -0.497452178615E+03    0.28150E-04   -0.13511E-04  2101   0.237E-02    0.846E-02
RMM:  13    -0.497452209660E+03   -0.31045E-04   -0.40619E-05  2096   0.129E-02    0.617E-02
RMM:  14    -0.497452264643E+03   -0.54983E-04   -0.17833E-05  2096   0.865E-03    0.455E-02
RMM:  15    -0.497452301861E+03   -0.37218E-04   -0.83037E-06  1911   0.599E-03    0.229E-02
RMM:  16    -0.497452371210E+03   -0.69349E-04   -0.56167E-06  1803   0.468E-03    0.310E-02
RMM:  17    -0.497452474349E+03   -0.10314E-03   -0.60494E-06  2016   0.463E-03    0.167E-02
RMM:  18    -0.497452565556E+03   -0.91207E-04   -0.34551E-06  1579   0.369E-03    0.199E-02
RMM:  19    -0.497452671519E+03   -0.10596E-03   -0.23762E-06  1316   0.328E-03    0.135E-02
RMM:  20    -0.497452728608E+03   -0.57088E-04   -0.11451E-06  1207   0.238E-03    0.976E-03
RMM:  21    -0.497452841760E+03   -0.11315E-03   -0.91430E-07  1228   0.179E-03    0.991E-03
RMM:  22    -0.497452902450E+03   -0.60690E-04   -0.49177E-07  1196   0.149E-03    0.679E-03
RMM:  23    -0.497453050441E+03   -0.14799E-03   -0.96236E-07  1247   0.136E-03    0.922E-03
RMM:  24    -0.497453192852E+03   -0.14241E-03   -0.99954E-07  1246   0.150E-03    0.634E-03
RMM:  25    -0.497453363678E+03   -0.17083E-03   -0.14070E-06  1275   0.142E-03    0.876E-03
RMM:  26    -0.497453550970E+03   -0.18729E-03   -0.20152E-06  1302   0.161E-03    0.513E-03
RMM:  27    -0.497453662696E+03   -0.11173E-03   -0.12265E-06  1261   0.130E-03    0.697E-03
RMM:  28    -0.497453785053E+03   -0.12236E-03   -0.19520E-06  1309   0.137E-03    0.359E-03
RMM:  29    -0.497453814523E+03   -0.29470E-04   -0.42296E-07  1159   0.880E-04    0.309E-03
RMM:  30    -0.497453846348E+03   -0.31824E-04   -0.56782E-07  1218   0.782E-04    0.269E-03
RMM:  31    -0.497453853071E+03   -0.67236E-05   -0.18943E-07  1099   0.651E-04    0.168E-03
RMM:  32    -0.497453850816E+03    0.22552E-05   -0.23850E-07  1078   0.525E-04    0.197E-03
RMM:  33    -0.497453847581E+03    0.32347E-05   -0.67109E-08   968   0.472E-04    0.108E-03
RMM:  34    -0.497453844251E+03    0.33299E-05   -0.33500E-08   780   0.327E-04    0.132E-03
RMM:  35    -0.497453842466E+03    0.17857E-05   -0.13231E-08   664   0.291E-04    0.729E-04
RMM:  36    -0.497453842284E+03    0.18156E-06   -0.32445E-09   443   0.255E-04
  18 F= -.53259127E+03 E0= -.53260121E+03  d E =-.539942E-02  mag=    92.3870
       N       E                     dE             d eps       ncg     rms          rms(c)
DAV:   1    -0.497456005034E+03   -0.21626E-02   -0.13272E-01  2152   0.448E-01    0.143E-01
RMM:   2    -0.497456847691E+03   -0.84266E-03   -0.20357E-03  2100   0.103E-01    0.382E-01
RMM:   3    -0.497456958248E+03   -0.11056E-03   -0.87238E-04  2194   0.588E-02    0.403E-01
RMM:   4    -0.497456860209E+03    0.98039E-04   -0.40323E-04  2101   0.405E-02    0.356E-01
RMM:   5    -0.497456394388E+03    0.46582E-03   -0.20694E-04  2100   0.308E-02    0.956E-02
RMM:   6    -0.497456382170E+03    0.12217E-04   -0.38581E-05  2096   0.129E-02    0.385E-02
RMM:   7    -0.497456379222E+03    0.29478E-05   -0.12952E-05  2040   0.729E-03    0.498E-02
RMM:   8    -0.497456356336E+03    0.22886E-04   -0.10589E-05  2093   0.645E-03    0.280E-02
RMM:   9    -0.497456349170E+03    0.71667E-05   -0.11149E-05  2053   0.671E-03    0.411E-02
RMM:  10    -0.497456326924E+03    0.22246E-04   -0.11612E-05  2091   0.655E-03    0.371E-02
RMM:  11    -0.497456316503E+03    0.10421E-04   -0.51384E-06  1771   0.471E-03    0.124E-02
RMM:  12    -0.497456317458E+03   -0.95513E-06   -0.12328E-06  1174   0.253E-03
  19 F= -.53259127E+03 E0= -.53260122E+03  d E =-.540184E-02  mag=    92.3885
       N       E                     dE             d eps       ncg     rms          rms(c)
DAV:   1    -0.497460912280E+03   -0.45958E-02   -0.40912E+00  2124   0.248E+00    0.772E-01
RMM:   2    -0.497484274463E+03   -0.23362E-01   -0.60980E-02  2100   0.569E-01    0.192E+00
RMM:   3    -0.497489051629E+03   -0.47772E-02   -0.26873E-02  2198   0.326E-01    0.213E+00
RMM:   4    -0.497487512677E+03    0.15390E-02   -0.11452E-02  2102   0.214E-01    0.204E+00
RMM:   5    -0.497472254056E+03    0.15259E-01   -0.59404E-03  2100   0.164E-01    0.423E-01
RMM:   6    -0.497471827952E+03    0.42610E-03   -0.98100E-04  2101   0.644E-02    0.192E-01
RMM:   7    -0.497471701192E+03    0.12676E-03   -0.31475E-04  2100   0.359E-02    0.246E-01
RMM:   8    -0.497471343486E+03    0.35771E-03   -0.24183E-04  2106   0.313E-02    0.144E-01
RMM:   9    -0.497471352261E+03   -0.87747E-05   -0.33184E-04  2099   0.358E-02    0.257E-01
RMM:  10    -0.497471098690E+03    0.25357E-03   -0.37119E-04  2101   0.367E-02    0.184E-01
RMM:  11    -0.497470977522E+03    0.12117E-03   -0.19290E-04  2100   0.279E-02    0.113E-01
RMM:  12    -0.497470961826E+03    0.15695E-04   -0.62635E-05  2101   0.160E-02    0.593E-02
RMM:  13    -0.497470982373E+03   -0.20547E-04   -0.18521E-05  2094   0.873E-03    0.381E-02
RMM:  14    -0.497471026121E+03   -0.43748E-04   -0.76592E-06  1910   0.567E-03    0.315E-02
RMM:  15    -0.497471058133E+03   -0.32012E-04   -0.40051E-06  1672   0.434E-03    0.166E-02
RMM:  16    -0.497471111316E+03   -0.53183E-04   -0.31076E-06  1510   0.352E-03    0.229E-02
RMM:  17    -0.497471192621E+03   -0.81305E-04   -0.36160E-06  1547   0.381E-03    0.131E-02
RMM:  18    -0.497471260141E+03   -0.67520E-04   -0.22946E-06  1300   0.317E-03    0.160E-02
RMM:  19    -0.497471335743E+03   -0.75602E-04   -0.16564E-06  1227   0.280E-03    0.993E-03
RMM:  20    -0.497471373936E+03   -0.38194E-04   -0.68988E-07  1188   0.183E-03    0.786E-03
RMM:  21    -0.497471444928E+03   -0.70992E-04   -0.52358E-07  1209   0.139E-03    0.767E-03
RMM:  22    -0.497471493740E+03   -0.48812E-04   -0.34169E-07  1190   0.115E-03    0.609E-03
RMM:  23    -0.497471600869E+03   -0.10713E-03   -0.63341E-07  1229   0.107E-03    0.645E-03
RMM:  24    -0.497471694923E+03   -0.94054E-04   -0.62706E-07  1224   0.119E-03    0.578E-03
RMM:  25    -0.497471863279E+03   -0.16836E-03   -0.17282E-06  1290   0.135E-03    0.637E-03
RMM:  26    -0.497471967529E+03   -0.10425E-03   -0.11602E-06  1262   0.131E-03    0.459E-03
RMM:  27    -0.497472059709E+03   -0.92179E-04   -0.12282E-06  1274   0.115E-03    0.575E-03
RMM:  28    -0.497472114125E+03   -0.54417E-04   -0.82418E-07  1225   0.107E-03    0.236E-03
RMM:  29    -0.497472135554E+03   -0.21429E-04   -0.32677E-07  1119   0.716E-04    0.293E-03
RMM:  30    -0.497472151147E+03   -0.15593E-04   -0.31707E-07  1152   0.674E-04    0.189E-03
RMM:  31    -0.497472152649E+03   -0.15015E-05   -0.14687E-07  1053   0.519E-04    0.162E-03
RMM:  32    -0.497472147880E+03    0.47682E-05   -0.12048E-07   968   0.438E-04    0.120E-03
RMM:  33    -0.497472145833E+03    0.20470E-05   -0.32053E-08   828   0.353E-04    0.958E-04
RMM:  34    -0.497472143398E+03    0.24352E-05   -0.14455E-08   587   0.288E-04    0.929E-04
RMM:  35    -0.497472142681E+03    0.71716E-06   -0.23565E-09   438   0.253E-04
  20 F= -.53259444E+03 E0= -.53260417E+03  d E =-.317221E-02  mag=    92.4156
       N       E                     dE             d eps       ncg     rms          rms(c)
DAV:   1    -0.497474997699E+03   -0.28543E-02   -0.34220E-01  2160   0.718E-01    0.223E-01
RMM:   2    -0.497477012663E+03   -0.20150E-02   -0.51824E-03  2100   0.166E-01    0.574E-01
RMM:   3    -0.497477299274E+03   -0.28661E-03   -0.22392E-03  2201   0.942E-02    0.607E-01
RMM:   4    -0.497477239499E+03    0.59775E-04   -0.95903E-04  2102   0.618E-02    0.597E-01
RMM:   5    -0.497475942484E+03    0.12970E-02   -0.51310E-04  2100   0.483E-02    0.124E-01
RMM:   6    -0.497475921009E+03    0.21475E-04   -0.81772E-05  2100   0.186E-02    0.539E-02
RMM:   7    -0.497475908518E+03    0.12491E-04   -0.26004E-05  2096   0.103E-02    0.714E-02
RMM:   8    -0.497475864905E+03    0.43612E-04   -0.21195E-05  2096   0.913E-03    0.421E-02
RMM:   9    -0.497475854288E+03    0.10618E-04   -0.27800E-05  2096   0.104E-02    0.736E-02
RMM:  10    -0.497475807898E+03    0.46390E-04   -0.30473E-05  2098   0.105E-02    0.553E-02
RMM:  11    -0.497475788267E+03    0.19631E-04   -0.14755E-05  2083   0.773E-03    0.277E-02
RMM:  12    -0.497475787207E+03    0.10601E-05   -0.40069E-06  1717   0.407E-03    0.167E-02
RMM:  13    -0.497475789444E+03   -0.22370E-05   -0.12502E-06  1178   0.264E-03    0.855E-03
RMM:  14    -0.497475794738E+03   -0.52941E-05   -0.56312E-07  1173   0.169E-03    0.856E-03
RMM:  15    -0.497475800204E+03   -0.54656E-05   -0.35938E-07  1171   0.138E-03    0.487E-03
RMM:  16    -0.497475806407E+03   -0.62038E-05   -0.25993E-07  1169   0.106E-03    0.606E-03
RMM:  17    -0.497475816325E+03   -0.99178E-05   -0.29394E-07  1178   0.112E-03    0.373E-03
RMM:  18    -0.497475824228E+03   -0.79028E-05   -0.19583E-07  1172   0.945E-04    0.423E-03
RMM:  19    -0.497475832479E+03   -0.82512E-05   -0.12424E-07  1156   0.768E-04    0.274E-03
RMM:  20    -0.497475837701E+03   -0.52218E-05   -0.55825E-08  1082   0.517E-04    0.224E-03
RMM:  21    -0.497475846142E+03   -0.84405E-05   -0.37352E-08   912   0.394E-04    0.208E-03
RMM:  22    -0.497475852072E+03   -0.59302E-05   -0.21123E-08   782   0.336E-04    0.175E-03
RMM:  23    -0.497475865348E+03   -0.13276E-04   -0.48145E-08   795   0.335E-04    0.176E-03
RMM:  24    -0.497475877282E+03   -0.11934E-04   -0.57250E-08   916   0.364E-04    0.167E-03
RMM:  25    -0.497475901802E+03   -0.24520E-04   -0.20155E-07  1051   0.447E-04    0.189E-03
RMM:  26    -0.497475915336E+03   -0.13534E-04   -0.11425E-07   962   0.425E-04    0.122E-03
RMM:  27    -0.497475923771E+03   -0.84353E-05   -0.63311E-08   811   0.346E-04    0.128E-03
RMM:  28    -0.497475930175E+03   -0.64036E-05   -0.50075E-08   767   0.326E-04    0.617E-04
RMM:  29    -0.497475933596E+03   -0.34218E-05   -0.28412E-08   649   0.296E-04    0.810E-04
RMM:  30    -0.497475936755E+03   -0.31585E-05   -0.39915E-08   652   0.294E-04    0.600E-04
RMM:  31    -0.497475937235E+03   -0.48037E-06   -0.17381E-08   534   0.273E-04
  21 F= -.53259460E+03 E0= -.53260426E+03  d E =-.332690E-02  mag=    92.4230
       N       E                     dE             d eps       ncg     rms          rms(c)
DAV:   1    -0.497479895508E+03   -0.39588E-02   -0.24527E+00  2140   0.191E+00    0.581E-01
RMM:   2    -0.497493191045E+03   -0.13296E-01   -0.37090E-02  2100   0.446E-01    0.137E+00
RMM:   3    -0.497498608070E+03   -0.54170E-02   -0.14545E-02  2227   0.237E-01    0.175E+00
RMM:   4    -0.497494010978E+03    0.45971E-02   -0.70042E-03  2100   0.168E-01    0.144E+00
RMM:   5    -0.497486917171E+03    0.70938E-02   -0.34324E-03  2100   0.125E-01    0.303E-01
RMM:   6    -0.497486703884E+03    0.21329E-03   -0.50163E-04  2101   0.456E-02    0.149E-01
RMM:   7    -0.497486636153E+03    0.67731E-04   -0.18544E-04  2101   0.271E-02    0.196E-01
RMM:   8    -0.497486434203E+03    0.20195E-03   -0.15186E-04  2103   0.246E-02    0.107E-01
RMM:   9    -0.497486462254E+03   -0.28051E-04   -0.22726E-04  2105   0.294E-02    0.215E-01
RMM:  10    -0.497486254526E+03    0.20773E-03   -0.23520E-04  2105   0.291E-02    0.127E-01
RMM:  11    -0.497486186284E+03    0.68242E-04   -0.98725E-05  2102   0.199E-02    0.780E-02
RMM:  12    -0.497486176253E+03    0.10031E-04   -0.31263E-05  2096   0.111E-02    0.412E-02
RMM:  13    -0.497486182740E+03   -0.64864E-05   -0.84320E-06  1895   0.591E-03    0.277E-02
RMM:  14    -0.497486196245E+03   -0.13505E-04   -0.39563E-06  1669   0.427E-03    0.214E-02
RMM:  15    -0.497486209268E+03   -0.13023E-04   -0.22716E-06  1328   0.336E-03    0.130E-02
RMM:  16    -0.497486230034E+03   -0.20766E-04   -0.19092E-06  1222   0.287E-03    0.160E-02
RMM:  17    -0.497486259259E+03   -0.29225E-04   -0.19771E-06  1239   0.298E-03    0.922E-03
RMM:  18    -0.497486290840E+03   -0.31581E-04   -0.14125E-06  1207   0.252E-03    0.120E-02
RMM:  19    -0.497486316866E+03   -0.26026E-04   -0.94805E-07  1186   0.222E-03    0.655E-03
RMM:  20    -0.497486334736E+03   -0.17870E-04   -0.38888E-07  1173   0.137E-03    0.562E-03
RMM:  21    -0.497486363443E+03   -0.28707E-04   -0.23612E-07  1184   0.103E-03    0.446E-03
RMM:  22    -0.497486381590E+03   -0.18146E-04   -0.11936E-07  1144   0.704E-04    0.401E-03
RMM:  23    -0.497486419755E+03   -0.38165E-04   -0.17312E-07  1162   0.628E-04    0.335E-03
RMM:  24    -0.497486457203E+03   -0.37448E-04   -0.18267E-07  1150   0.663E-04    0.355E-03
RMM:  25    -0.497486525258E+03   -0.68055E-04   -0.48492E-07  1220   0.762E-04    0.354E-03
RMM:  26    -0.497486565752E+03   -0.40494E-04   -0.28638E-07  1133   0.705E-04    0.284E-03
RMM:  27    -0.497486624612E+03   -0.58860E-04   -0.58620E-07  1195   0.737E-04    0.337E-03
RMM:  28    -0.497486652816E+03   -0.28204E-04   -0.28468E-07  1113   0.673E-04    0.160E-03
RMM:  29    -0.497486672830E+03   -0.20014E-04   -0.20694E-07  1022   0.513E-04    0.211E-03
RMM:  30    -0.497486685998E+03   -0.13167E-04   -0.15655E-07  1007   0.495E-04    0.122E-03
RMM:  31    -0.497486692099E+03   -0.61012E-05   -0.88043E-08   905   0.402E-04    0.150E-03
RMM:  32    -0.497486693851E+03   -0.17523E-05   -0.97023E-08   918   0.374E-04    0.710E-04
RMM:  33    -0.497486692898E+03    0.95292E-06   -0.25782E-08   693   0.305E-04
  22 F= -.53259615E+03 E0= -.53260568E+03  d E =-.155028E-02  mag=    92.4379
