ML                                      
           1
     8.978792   -5.138534   -0.009356
     0.022251   10.321925   -0.004485
     0.010072   -0.021111   22.915826
   Pt   Pd   Ni   Co   Fe
  16  13  19  18  14
Direct configuration=     1
   0.33729257  0.11483926  0.37360259
   0.35019695  0.60614981  0.37379576
   0.59216758  0.87080374  0.09550745
   0.09618435  0.11351094  0.37406295
   0.18964345  0.78023866  0.18477125
   0.19172521  0.04600335  0.19114681
   0.59729280  0.36810956  0.37351224
   0.26552862  0.69334908  0.27847961
   0.93450315  0.28281342  0.18969324
   0.10564778  0.86985400  0.09139379
   0.17494832  0.78692514  0.46840990
   0.93847841  0.27601860  0.46773820
   0.85261527  0.87224395  0.09436398
   0.01352794  0.95774385  0.28510668
   0.52270001  0.70231906  0.28106404
   0.36102056  0.12842703  0.09420268
   0.00850003  0.69772104  0.28406894
   0.76537930  0.20056226  0.27849885
   0.25883026  0.43797608  0.27987806
   0.93164527  0.78210957  0.18949456
   0.34167627  0.36069986  0.37557692
   0.93368297  0.78349019  0.46381747
   0.84794355  0.37048816  0.09729228
   0.60837521  0.62165889  0.37764826
   0.60770138  0.87248140  0.37129877
   0.68420634  0.78560656  0.18858490
   0.85191491  0.62114257  0.37797528
   0.77453936  0.95272147  0.28020518
   0.42794869  0.52498940  0.18592413
   0.85778792  0.86679046  0.37469326
   0.01811559  0.19508589  0.27897558
   0.68515027  0.52548753  0.18857896
   0.34745438  0.36970079  0.09397440
   0.42299910  0.28753533  0.46558692
   0.69305063  0.54286998  0.46874417
   0.10395999  0.60940576  0.09716832
   0.93841900  0.02290544  0.46580582
   0.84514079  0.61361234  0.09584801
   0.60033211  0.11896258  0.09691898
   0.09406616  0.61394307  0.37786383
   0.25740751  0.20776060  0.28254041
   0.52777164  0.95398588  0.27904244
   0.68603904  0.03034885  0.46504252
   0.92856728  0.54189311  0.46857531
   0.59918732  0.61008141  0.09453106
   0.51436782  0.44808833  0.27977760
   0.09945421  0.12892334  0.09579516
   0.93776523  0.04190364  0.18871929
   0.43932425  0.52162749  0.46835842
   0.76026145  0.44933920  0.27766761
   0.68070044  0.29372745  0.47061590
   0.60023076  0.10949276  0.37208012
   0.69228191  0.78397337  0.46515356
   0.85399518  0.10872217  0.36940755
   0.17878999  0.28294822  0.18565247
   0.35078058  0.86853912  0.37268488
   0.18689064  0.52494256  0.46929992
   0.26168532  0.94754672  0.28101209
   0.84745951  0.36115967  0.37127636
   0.67468442  0.27596967  0.18718354
   0.18760890  0.27603933  0.46663496
   0.10586798  0.36270367  0.09403631
   0.60527919  0.37841092  0.09859221
   0.76532066  0.69648839  0.28385719
   0.18549425  0.52690709  0.18508883
   0.43704102  0.79127311  0.18720509
   0.68648672  0.03765331  0.19062250
   0.92790996  0.52918016  0.18928201
   0.17466912  0.02447080  0.46851251
   0.34533989  0.60786064  0.09316442
   0.35304565  0.87316082  0.09153082
   0.51394922  0.19627775  0.27827481
   0.10783606  0.35522631  0.37044188
   0.44247695  0.29085737  0.18762028
   0.85705467  0.11954673  0.09498862
   0.01602361  0.44225892  0.28144144
   0.44699204  0.03596852  0.18619732
   0.42403138  0.03408490  0.47158571
   0.08699417  0.86900027  0.37749836
   0.43855213  0.78069113  0.46731972
Direct configuration=     2
   0.35075474  0.10473660  0.37339240
   0.34401051  0.61630648  0.37787768
   0.59216758  0.87080374  0.09550745
   0.08751420  0.11548083  0.37818469
   0.18964345  0.78023866  0.18477125
   0.19172521  0.04600335  0.19114681
   0.60268443  0.36005344  0.37297598
   0.26361712  0.70029466  0.27971503
   0.93450315  0.28281342  0.18969324
   0.10564778  0.86985400  0.09139379
   0.18736824  0.78599389  0.46888170
   0.93484123  0.27622825  0.46601717
   0.85261527  0.87224395  0.09436398
   0.02044046  0.94828061  0.28083397
   0.52095474  0.69747792  0.27880236
   0.36102056  0.12842703  0.09420268
   0.01133727  0.69358124  0.28393072
   0.76322139  0.20363362  0.28197198
   0.25821733  0.43932390  0.27727504
   0.93164527  0.78210957  0.18949456
   0.34876110  0.36467336  0.37589652
   0.92787774  0.78621580  0.47022211
   0.84794355  0.37048816  0.09729228
   0.60577839  0.62122555  0.37731595
   0.60569811  0.87586949  0.37572183
   0.68420634  0.78560656  0.18858490
   0.85197174  0.61055060  0.37385343
   0.76952503  0.95463906  0.27954976
   0.42794869  0.52498940  0.18592413
   0.85296309  0.86814111  0.37461157
   0.01718767  0.20112982  0.27875580
   0.68515027  0.52548753  0.18857896
   0.34745438  0.36970079  0.09397440
   0.42738254  0.28542488  0.46715240
   0.68692088  0.53753686  0.46994515
   0.10395999  0.60940576  0.09716832
   0.93488466  0.02670562  0.46587039
   0.84514079  0.61361234  0.09584801
   0.60033211  0.11896258  0.09691898
   0.09560353  0.61150727  0.37693521
   0.26437553  0.20305710  0.28004546
   0.51958754  0.95374716  0.27879077
   0.68442383  0.02996143  0.46448335
   0.92813576  0.53434485  0.46874307
   0.59918732  0.61008141  0.09453106
   0.51875143  0.44658676  0.27897753
   0.09945421  0.12892334  0.09579516
   0.93776523  0.04190364  0.18871929
   0.43906726  0.52535712  0.46880713
   0.75855376  0.44878783  0.27784006
   0.67928090  0.29013156  0.46853867
   0.59985478  0.11222940  0.37308302
   0.68813167  0.78506287  0.46580355
   0.85314172  0.11548859  0.37200829
   0.17878999  0.28294822  0.18565247
   0.35056178  0.86949240  0.37300679
   0.18821689  0.52547637  0.46951396
   0.26719643  0.94971329  0.28144147
   0.84983061  0.36145521  0.37250719
   0.67468442  0.27596967  0.18718354
   0.18631889  0.27657569  0.46753175
   0.10586798  0.36270367  0.09403631
   0.60527919  0.37841092  0.09859221
   0.76355451  0.69310255  0.28298696
   0.18549425  0.52690709  0.18508883
   0.43704102  0.79127311  0.18720509
   0.68648672  0.03765331  0.19062250
   0.92790996  0.52918016  0.18928201
   0.17779320  0.03203881  0.46925663
   0.34533989  0.60786064  0.09316442
   0.35304565  0.87316082  0.09153082
   0.51219973  0.19636401  0.27895182
   0.09597828  0.35876578  0.37223299
   0.44247695  0.29085737  0.18762028
   0.85705467  0.11954673  0.09498862
   0.01427189  0.44560159  0.28290547
   0.44699204  0.03596852  0.18619732
   0.42940969  0.03684575  0.46982619
   0.09619361  0.86685521  0.37538295
   0.44038358  0.78149370  0.46643674
Direct configuration=     3
   0.35261518  0.10334044  0.37336336
   0.34315556  0.61771011  0.37844180
   0.59216758  0.87080374  0.09550745
   0.08631601  0.11575306  0.37875431
   0.18964345  0.78023866  0.18477125
   0.19172521  0.04600335  0.19114681
   0.60342954  0.35894010  0.37290187
   0.26335296  0.70125453  0.27988576
   0.93450315  0.28281342  0.18969324
   0.10564778  0.86985400  0.09139379
   0.18908464  0.78586519  0.46894691
   0.93433858  0.27625723  0.46577933
   0.85261527  0.87224395  0.09436398
   0.02139576  0.94697281  0.28024349
   0.52071355  0.69680889  0.27848980
   0.36102056  0.12842703  0.09420268
   0.01172937  0.69300913  0.28391162
   0.76292317  0.20405808  0.28245195
   0.25813263  0.43951016  0.27691531
   0.93164527  0.78210957  0.18949456
   0.34974020  0.36522249  0.37594069
   0.92707547  0.78659247  0.47110722
   0.84794355  0.37048816  0.09729228
   0.60541951  0.62116567  0.37727003
   0.60542126  0.87633772  0.37633309
   0.68420634  0.78560656  0.18858490
   0.85197959  0.60908681  0.37328380
   0.76883206  0.95490407  0.27945918
   0.42794869  0.52498940  0.18592413
   0.85229631  0.86832777  0.37460028
   0.01705943  0.20196508  0.27872543
   0.68515027  0.52548753  0.18857896
   0.34745438  0.36970079  0.09397440
   0.42798832  0.28513322  0.46736874
   0.68607376  0.53679983  0.47011112
   0.10395999  0.60940576  0.09716832
   0.93439622  0.02723079  0.46587932
   0.84514079  0.61361234  0.09584801
   0.60033211  0.11896258  0.09691898
   0.09581599  0.61117064  0.37680688
   0.26533849  0.20240709  0.27970066
   0.51845651  0.95371417  0.27875599
   0.68420062  0.02990789  0.46440607
   0.92807612  0.53330170  0.46876626
   0.59918732  0.61008141  0.09453106
   0.51935724  0.44637925  0.27886696
   0.09945421  0.12892334  0.09579516
   0.93776523  0.04190364  0.18871929
   0.43903175  0.52587254  0.46886914
   0.75831776  0.44871163  0.27786389
   0.67908472  0.28963462  0.46825160
   0.59980282  0.11260760  0.37322162
   0.68755811  0.78521343  0.46589338
   0.85302377  0.11642369  0.37236771
   0.17878999  0.28294822  0.18565247
   0.35053154  0.86962414  0.37305127
   0.18840018  0.52555014  0.46954354
   0.26795805  0.95001271  0.28150081
   0.85015829  0.36149605  0.37267728
   0.67468442  0.27596967  0.18718354
   0.18614062  0.27664981  0.46765568
   0.10586798  0.36270367  0.09403631
   0.60527919  0.37841092  0.09859221
   0.76331044  0.69263463  0.28286670
   0.18549425  0.52690709  0.18508883
   0.43704102  0.79127311  0.18720509
   0.68648672  0.03765331  0.19062250
   0.92790996  0.52918016  0.18928201
   0.17822494  0.03308469  0.46935946
   0.34533989  0.60786064  0.09316442
   0.35304565  0.87316082  0.09153082
   0.51195795  0.19637593  0.27904539
   0.09433956  0.35925492  0.37248052
   0.44247695  0.29085737  0.18762028
   0.85705467  0.11954673  0.09498862
   0.01402980  0.44606354  0.28310780
   0.44699204  0.03596852  0.18619732
   0.43015296  0.03722730  0.46958303
   0.09746496  0.86655876  0.37509060
   0.44063668  0.78160461  0.46631471
Direct configuration=     4
   0.35187841  0.10412780  0.37373088
   0.34009628  0.61821076  0.37930975
   0.59216758  0.87080374  0.09550745
   0.09024089  0.11361160  0.37714046
   0.18964345  0.78023866  0.18477125
   0.19172521  0.04600335  0.19114681
   0.60550679  0.35643843  0.37264325
   0.26720026  0.70388667  0.28102058
   0.93450315  0.28281342  0.18969324
   0.10564778  0.86985400  0.09139379
   0.19276766  0.78474919  0.46912061
   0.93246798  0.27938310  0.46545434
   0.85261527  0.87224395  0.09436398
   0.02104995  0.95100327  0.28300527
   0.51697615  0.69575007  0.28017873
   0.36102056  0.12842703  0.09420268
   0.01181164  0.68855626  0.28275493
   0.76104873  0.20582588  0.28378434
   0.25766768  0.43995633  0.27807444
   0.93164527  0.78210957  0.18949456
   0.34866895  0.36420605  0.37532096
   0.92833194  0.78591778  0.47301945
   0.84794355  0.37048816  0.09729228
   0.60451754  0.61966507  0.37699145
   0.60369819  0.87668151  0.37683416
   0.68420634  0.78560656  0.18858490
   0.85302462  0.60903250  0.37423307
   0.77056284  0.95660592  0.28085415
   0.42794869  0.52498940  0.18592413
   0.85159320  0.86774969  0.37424435
   0.01727717  0.20221063  0.27947714
   0.68515027  0.52548753  0.18857896
   0.34745438  0.36970079  0.09397440
   0.43154602  0.28388476  0.46820948
   0.68026315  0.53140296  0.47031821
   0.10395999  0.60940576  0.09716832
   0.92970625  0.02976256  0.46683808
   0.84514079  0.61361234  0.09584801
   0.60033211  0.11896258  0.09691898
   0.09615735  0.60859250  0.37712075
   0.27031058  0.20115164  0.27958758
   0.51281163  0.95328155  0.27894746
   0.68252848  0.03137894  0.46484588
   0.92964601  0.52878171  0.46832058
   0.59918732  0.61008141  0.09453106
   0.52239574  0.44447167  0.27844827
   0.09945421  0.12892334  0.09579516
   0.93776523  0.04190364  0.18871929
   0.43757320  0.52894671  0.46930370
   0.75691117  0.44860659  0.27737362
   0.67786293  0.28569880  0.46657431
   0.60079336  0.11343549  0.37436153
   0.68246159  0.78479613  0.46652702
   0.84945624  0.12004658  0.37377520
   0.17878999  0.28294822  0.18565247
   0.34983174  0.86703605  0.37335361
   0.18846928  0.52489920  0.46883730
   0.27361042  0.95270222  0.28128621
   0.85401314  0.36201555  0.37424345
   0.67468442  0.27596967  0.18718354
   0.18676088  0.27946774  0.46846041
   0.10586798  0.36270367  0.09403631
   0.60527919  0.37841092  0.09859221
   0.76231875  0.69042215  0.28221096
   0.18549425  0.52690709  0.18508883
   0.43704102  0.79127311  0.18720509
   0.68648672  0.03765331  0.19062250
   0.92790996  0.52918016  0.18928201
   0.18015273  0.03726318  0.46984162
   0.34533989  0.60786064  0.09316442
   0.35304565  0.87316082  0.09153082
   0.51078075  0.19650338  0.27882801
   0.09076002  0.36512821  0.37344947
   0.44247695  0.29085737  0.18762028
   0.85705467  0.11954673  0.09498862
   0.01278271  0.44779244  0.28408620
   0.44699204  0.03596852  0.18619732
   0.43709514  0.04013506  0.46851497
   0.10137921  0.86454558  0.37515682
   0.44188372  0.78149514  0.46702820
Direct configuration=     5
   0.35161322  0.10441120  0.37386317
   0.33899516  0.61839096  0.37962216
   0.59216758  0.87080374  0.09550745
   0.09165357  0.11284083  0.37655959
   0.18964345  0.78023866  0.18477125
   0.19172521  0.04600335  0.19114681
   0.60625446  0.35553801  0.37255016
   0.26858501  0.70483405  0.28142903
   0.93450315  0.28281342  0.18969324
   0.10564778  0.86985400  0.09139379
   0.19409328  0.78434751  0.46918313
   0.93179469  0.28050819  0.46533737
   0.85261527  0.87224395  0.09436398
   0.02092549  0.95245395  0.28399931
   0.51563096  0.69536897  0.28078662
   0.36102056  0.12842703  0.09420268
   0.01184126  0.68695354  0.28233861
   0.76037407  0.20646216  0.28426390
   0.25750033  0.44011692  0.27849164
   0.93164527  0.78210957  0.18949456
   0.34828338  0.36384021  0.37509791
   0.92878418  0.78567494  0.47370771
   0.84794355  0.37048816  0.09729228
   0.60419290  0.61912496  0.37689118
   0.60307801  0.87680525  0.37701451
   0.68420634  0.78560656  0.18858490
   0.85340076  0.60901295  0.37457474
   0.77118580  0.95721846  0.28135624
   0.42794869  0.52498940  0.18592413
   0.85134013  0.86754162  0.37411624
   0.01735554  0.20229901  0.27974770
   0.68515027  0.52548753  0.18857896
   0.34745438  0.36970079  0.09397440
   0.43282653  0.28343541  0.46851208
   0.67817175  0.52946048  0.47039274
   0.10395999  0.60940576  0.09716832
   0.92801820  0.03067382  0.46718316
   0.84514079  0.61361234  0.09584801
   0.60033211  0.11896258  0.09691898
   0.09628021  0.60766455  0.37723372
   0.27210017  0.20069977  0.27954688
   0.51077988  0.95312584  0.27901638
   0.68192664  0.03190841  0.46500419
   0.93021105  0.52715484  0.46816016
   0.59918732  0.61008141  0.09453106
   0.52348938  0.44378509  0.27829757
   0.09945421  0.12892334  0.09579516
   0.93776523  0.04190364  0.18871929
   0.43704822  0.53005319  0.46946011
   0.75640490  0.44856879  0.27719715
   0.67742317  0.28428219  0.46597060
   0.60114988  0.11373348  0.37477181
   0.68062722  0.78464593  0.46675509
   0.84817219  0.12135056  0.37428179
   0.17878999  0.28294822  0.18565247
   0.34957987  0.86610453  0.37346243
   0.18849415  0.52466491  0.46858310
   0.27564486  0.95367025  0.28120897
   0.85540060  0.36220253  0.37480715
   0.67468442  0.27596967  0.18718354
   0.18698413  0.28048199  0.46875005
   0.10586798  0.36270367  0.09403631
   0.60527919  0.37841092  0.09859221
   0.76196182  0.68962582  0.28197495
   0.18549425  0.52690709  0.18508883
   0.43704102  0.79127311  0.18720509
   0.68648672  0.03765331  0.19062250
   0.92790996  0.52918016  0.18928201
   0.18084660  0.03876714  0.47001516
   0.34533989  0.60786064  0.09316442
   0.35304565  0.87316082  0.09153082
   0.51035704  0.19654925  0.27874978
   0.08947164  0.36724218  0.37379822
   0.44247695  0.29085737  0.18762028
   0.85705467  0.11954673  0.09498862
   0.01233385  0.44841473  0.28443836
   0.44699204  0.03596852  0.18619732
   0.43959382  0.04118164  0.46813055
   0.10278807  0.86382098  0.37518065
   0.44233256  0.78145573  0.46728500
Direct configuration=     6
   0.34944551  0.10566797  0.37454863
   0.34080755  0.61528832  0.37953731
   0.59216758  0.87080374  0.09550745
   0.09226181  0.11457871  0.37753124
   0.18964345  0.78023866  0.18477125
   0.19172521  0.04600335  0.19114681
   0.60648300  0.35779331  0.37211816
   0.26860308  0.70480965  0.28110721
   0.93450315  0.28281342  0.18969324
   0.10564778  0.86985400  0.09139379
   0.19455462  0.78419106  0.46957880
   0.93169434  0.28208013  0.46681729
   0.85261527  0.87224395  0.09436398
   0.02113493  0.95118125  0.28397342
   0.51831520  0.69721145  0.28150877
   0.36102056  0.12842703  0.09420268
   0.01086277  0.68848986  0.28221426
   0.75956737  0.20658525  0.28401221
   0.25649631  0.43848029  0.27966099
   0.93164527  0.78210957  0.18949456
   0.34740788  0.36370909  0.37525547
   0.93020151  0.78537699  0.47392012
   0.84794355  0.37048816  0.09729228
   0.60403468  0.61752024  0.37712037
   0.60278313  0.87574308  0.37641695
   0.68420634  0.78560656  0.18858490
   0.85516580  0.61231764  0.37596899
   0.76992412  0.95747531  0.28223225
   0.42794869  0.52498940  0.18592413
   0.85130394  0.86611828  0.37495880
   0.01769774  0.20251116  0.28049646
   0.68515027  0.52548753  0.18857896
   0.34745438  0.36970079  0.09397440
   0.43494330  0.28337190  0.46867496
   0.67420117  0.52554756  0.47013154
   0.10395999  0.60940576  0.09716832
   0.92601230  0.03223639  0.46689883
   0.84514079  0.61361234  0.09584801
   0.60033211  0.11896258  0.09691898
   0.09479086  0.60712360  0.37763020
   0.27509226  0.20219927  0.27980486
   0.51071818  0.95417870  0.27927959
   0.68053976  0.03380995  0.46573362
   0.93183176  0.52565716  0.46784978
   0.59918732  0.61008141  0.09453106
   0.52413529  0.44332917  0.27805980
   0.09945421  0.12892334  0.09579516
   0.93776523  0.04190364  0.18871929
   0.43551609  0.53117018  0.46961798
   0.75643237  0.44917063  0.27675243
   0.67692266  0.28137814  0.46533165
   0.60108125  0.11213502  0.37591055
   0.67735262  0.78383773  0.46725677
   0.84816452  0.12209503  0.37513860
   0.17878999  0.28294822  0.18565247
   0.34873925  0.86650998  0.37376787
   0.18664858  0.52289504  0.46863725
   0.27687720  0.95497569  0.28080932
   0.85705897  0.36378521  0.37553761
   0.67468442  0.27596967  0.18718354
   0.18721066  0.28215269  0.46879189
   0.10586798  0.36270367  0.09403631
   0.60527919  0.37841092  0.09859221
   0.76157116  0.68905679  0.28186454
   0.18549425  0.52690709  0.18508883
   0.43704102  0.79127311  0.18720509
   0.68648672  0.03765331  0.19062250
   0.92790996  0.52918016  0.18928201
   0.18177601  0.04140045  0.47025530
   0.34533989  0.60786064  0.09316442
   0.35304565  0.87316082  0.09153082
   0.51011343  0.19647993  0.27839236
   0.08995198  0.36768590  0.37418955
   0.44247695  0.29085737  0.18762028
   0.85705467  0.11954673  0.09498862
   0.01163390  0.44725408  0.28462724
   0.44699204  0.03596852  0.18619732
   0.44552673  0.04321956  0.46743700
   0.10360963  0.86124962  0.37584909
   0.44389184  0.78128353  0.46878075
Direct configuration=     7
   0.34852663  0.10620070  0.37483919
   0.34157580  0.61397315  0.37950135
   0.59216758  0.87080374  0.09550745
   0.09251964  0.11531538  0.37794312
   0.18964345  0.78023866  0.18477125
   0.19172521  0.04600335  0.19114681
   0.60657988  0.35874930  0.37193504
   0.26861074  0.70479931  0.28097080
   0.93450315  0.28281342  0.18969324
   0.10564778  0.86985400  0.09139379
   0.19475018  0.78412475  0.46974652
   0.93165180  0.28274646  0.46744462
   0.85261527  0.87224395  0.09436398
   0.02122371  0.95064177  0.28396244
   0.51945302  0.69799246  0.28181488
   0.36102056  0.12842703  0.09420268
   0.01044801  0.68914109  0.28216156
   0.75922541  0.20663743  0.28390552
   0.25607072  0.43778654  0.28015667
   0.93164527  0.78210957  0.18949456
   0.34703676  0.36365351  0.37532225
   0.93080231  0.78525069  0.47401016
   0.84794355  0.37048816  0.09729228
   0.60396762  0.61684001  0.37721753
   0.60265814  0.87529283  0.37616365
   0.68420634  0.78560656  0.18858490
   0.85591398  0.61371846  0.37656000
   0.76938931  0.95758418  0.28260358
   0.42794869  0.52498940  0.18592413
   0.85128859  0.86551494  0.37531596
   0.01784279  0.20260109  0.28081385
   0.68515027  0.52548753  0.18857896
   0.34745438  0.36970079  0.09397440
   0.43584058  0.28334498  0.46874400
   0.67251809  0.52388891  0.47002082
   0.10395999  0.60940576  0.09716832
   0.92516202  0.03289875  0.46677830
   0.84514079  0.61361234  0.09584801
   0.60033211  0.11896258  0.09691898
   0.09415954  0.60689429  0.37779826
   0.27636058  0.20283490  0.27991422
   0.51069203  0.95462499  0.27939117
   0.67995188  0.03461599  0.46604282
   0.93251877  0.52502231  0.46771822
   0.59918732  0.61008141  0.09453106
   0.52440909  0.44313591  0.27795901
   0.09945421  0.12892334  0.09579516
   0.93776523  0.04190364  0.18871929
   0.43486664  0.53164365  0.46968490
   0.75644401  0.44942574  0.27656392
   0.67671049  0.28014714  0.46506080
   0.60105215  0.11145746  0.37639325
   0.67596455  0.78349514  0.46746943
   0.84816127  0.12241060  0.37550180
   0.17878999  0.28294822  0.18565247
   0.34838291  0.86668185  0.37389734
   0.18586626  0.52214481  0.46866020
   0.27739957  0.95552905  0.28063991
   0.85776194  0.36445609  0.37584725
   0.67468442  0.27596967  0.18718354
   0.18730668  0.28286089  0.46880962
   0.10586798  0.36270367  0.09403631
   0.60527919  0.37841092  0.09859221
   0.76140556  0.68881558  0.28181773
   0.18549425  0.52690709  0.18508883
   0.43704102  0.79127311  0.18720509
   0.68648672  0.03765331  0.19062250
   0.92790996  0.52918016  0.18928201
   0.18216997  0.04251668  0.47035710
   0.34533989  0.60786064  0.09316442
   0.35304565  0.87316082  0.09153082
   0.51001016  0.19645054  0.27824086
   0.09015559  0.36787399  0.37435543
   0.44247695  0.29085737  0.18762028
   0.85705467  0.11954673  0.09498862
   0.01133720  0.44676209  0.28470730
   0.44699204  0.03596852  0.18619732
   0.44804163  0.04408342  0.46714301
   0.10395788  0.86015964  0.37613243
   0.44455280  0.78121054  0.46941478
Direct configuration=     8
   0.34869537  0.10612326  0.37527544
   0.34168622  0.61494663  0.37956519
   0.59216758  0.87080374  0.09550745
   0.08898337  0.11384148  0.37836407
   0.18964345  0.78023866  0.18477125
   0.19172521  0.04600335  0.19114681
   0.60687494  0.35873549  0.37155525
   0.26773376  0.70351121  0.28115133
   0.93450315  0.28281342  0.18969324
   0.10564778  0.86985400  0.09139379
   0.19573846  0.78453057  0.47020826
   0.93154556  0.28220301  0.46880040
   0.85261527  0.87224395  0.09436398
   0.02175419  0.95141302  0.28441635
   0.51943642  0.69731058  0.28125897
   0.36102056  0.12842703  0.09420268
   0.01020856  0.68936888  0.28287236
   0.75925102  0.20688120  0.28396555
   0.25696884  0.43840697  0.27999700
   0.93164527  0.78210957  0.18949456
   0.34778812  0.36306898  0.37606000
   0.93098831  0.78588566  0.47411083
   0.84794355  0.37048816  0.09729228
   0.60480006  0.61667510  0.37775133
   0.60265802  0.87461049  0.37684143
   0.68420634  0.78560656  0.18858490
   0.85627999  0.61481662  0.37720975
   0.77070374  0.95867029  0.28267360
   0.42794869  0.52498940  0.18592413
   0.85224156  0.86560791  0.37618809
   0.01710415  0.20153489  0.28127155
   0.68515027  0.52548753  0.18857896
   0.34745438  0.36970079  0.09397440
   0.43652469  0.28331380  0.46864451
   0.67068345  0.52185303  0.46985864
   0.10395999  0.60940576  0.09716832
   0.92391374  0.03276306  0.46647030
   0.84514079  0.61361234  0.09584801
   0.60033211  0.11896258  0.09691898
   0.09511058  0.60743203  0.37779745
   0.27678084  0.20352610  0.27992394
   0.51178105  0.95536606  0.27967470
   0.67935638  0.03523100  0.46657874
   0.93354535  0.52543378  0.46786474
   0.59918732  0.61008141  0.09453106
   0.52398295  0.44382511  0.27772886
   0.09945421  0.12892334  0.09579516
   0.93776523  0.04190364  0.18871929
   0.43339927  0.53118488  0.47005393
   0.75765775  0.45030590  0.27641814
   0.67741266  0.27967343  0.46475732
   0.59986931  0.11118734  0.37683288
   0.67484289  0.78301235  0.46786908
   0.84889531  0.12233442  0.37614455
   0.17878999  0.28294822  0.18565247
   0.34798940  0.86661315  0.37387221
   0.18432809  0.52147294  0.46879197
   0.27730473  0.95627912  0.28067702
   0.85762371  0.36581026  0.37595403
   0.67468442  0.27596967  0.18718354
   0.18776523  0.28463731  0.46904659
   0.10586798  0.36270367  0.09403631
   0.60527919  0.37841092  0.09859221
   0.76146188  0.68921273  0.28201925
   0.18549425  0.52690709  0.18508883
   0.43704102  0.79127311  0.18720509
   0.68648672  0.03765331  0.19062250
   0.92790996  0.52918016  0.18928201
   0.18298167  0.04411644  0.47073028
   0.34533989  0.60786064  0.09316442
   0.35304565  0.87316082  0.09153082
   0.51030430  0.19644611  0.27831049
   0.09067156  0.36619932  0.37494137
   0.44247695  0.29085737  0.18762028
   0.85705467  0.11954673  0.09498862
   0.01111639  0.44653092  0.28473802
   0.44699204  0.03596852  0.18619732
   0.45092692  0.04469860  0.46671034
   0.10442289  0.86000735  0.37670681
   0.44498493  0.78029251  0.47036596
Direct configuration=     9
   0.34876846  0.10608972  0.37546439
   0.34173404  0.61536828  0.37959284
   0.59216758  0.87080374  0.09550745
   0.08745168  0.11320307  0.37854640
   0.18964345  0.78023866  0.18477125
   0.19172521  0.04600335  0.19114681
   0.60700274  0.35872951  0.37139075
   0.26735391  0.70295329  0.28122952
   0.93450315  0.28281342  0.18969324
   0.10564778  0.86985400  0.09139379
   0.19616652  0.78470635  0.47040826
   0.93149954  0.28196762  0.46938764
   0.85261527  0.87224395  0.09436398
   0.02198396  0.95174707  0.28461295
   0.51942924  0.69701523  0.28101818
   0.36102056  0.12842703  0.09420268
   0.01010484  0.68946754  0.28318024
   0.75926212  0.20698678  0.28399155
   0.25735785  0.43867570  0.27992784
   0.93164527  0.78210957  0.18949456
   0.34811356  0.36281579  0.37637954
   0.93106887  0.78616069  0.47415443
   0.84794355  0.37048816  0.09729228
   0.60516062  0.61660368  0.37798254
   0.60265797  0.87431494  0.37713501
   0.68420634  0.78560656  0.18858490
   0.85643852  0.61529227  0.37749119
   0.77127307  0.95914073  0.28270393
   0.42794869  0.52498940  0.18592413
   0.85265433  0.86564818  0.37656585
   0.01678422  0.20107307  0.28146980
   0.68515027  0.52548753  0.18857896
   0.34745438  0.36970079  0.09397440
   0.43682100  0.28330030  0.46860142
   0.66988880  0.52097120  0.46978840
   0.10395999  0.60940576  0.09716832
   0.92337306  0.03270428  0.46633689
   0.84514079  0.61361234  0.09584801
   0.60033211  0.11896258  0.09691898
   0.09552252  0.60766494  0.37779710
   0.27696287  0.20382549  0.27992815
   0.51225275  0.95568705  0.27979750
   0.67909845  0.03549738  0.46681087
   0.93399000  0.52561201  0.46792820
   0.59918732  0.61008141  0.09453106
   0.52379837  0.44412363  0.27762917
   0.09945421  0.12892334  0.09579516
   0.93776523  0.04190364  0.18871929
   0.43276369  0.53098617  0.47021377
   0.75818347  0.45068713  0.27635500
   0.67771680  0.27946825  0.46462588
   0.59935698  0.11107034  0.37702330
   0.67435705  0.78280323  0.46804218
   0.84921325  0.12230142  0.37642295
   0.17878999  0.28294822  0.18565247
   0.34781895  0.86658339  0.37386132
   0.18366185  0.52118193  0.46884904
   0.27726365  0.95660400  0.28069310
   0.85756383  0.36639680  0.37600028
   0.67468442  0.27596967  0.18718354
   0.18796385  0.28540674  0.46914923
   0.10586798  0.36270367  0.09403631
   0.60527919  0.37841092  0.09859221
   0.76148627  0.68938475  0.28210653
   0.18549425  0.52690709  0.18508883
   0.43704102  0.79127311  0.18720509
   0.68648672  0.03765331  0.19062250
   0.92790996  0.52918016  0.18928201
   0.18333324  0.04480935  0.47089191
   0.34533989  0.60786064  0.09316442
   0.35304565  0.87316082  0.09153082
   0.51043171  0.19644418  0.27834065
   0.09089505  0.36547395  0.37519516
   0.44247695  0.29085737  0.18762028
   0.85705467  0.11954673  0.09498862
   0.01102075  0.44643080  0.28475132
   0.44699204  0.03596852  0.18619732
   0.45217665  0.04496506  0.46652294
   0.10462431  0.85994139  0.37695559
   0.44517210  0.77989488  0.47077795
Direct configuration=    10
   0.34799243  0.10540612  0.37561330
   0.34187484  0.61596068  0.37989694
   0.59216758  0.87080374  0.09550745
   0.08812624  0.11303950  0.37899624
   0.18964345  0.78023866  0.18477125
   0.19172521  0.04600335  0.19114681
   0.60780497  0.35845194  0.37098378
   0.26705790  0.70322759  0.28128367
   0.93450315  0.28281342  0.18969324
   0.10564778  0.86985400  0.09139379
   0.19736030  0.78538776  0.47083994
   0.93092437  0.28141334  0.46997873
   0.85261527  0.87224395  0.09436398
   0.02283002  0.95215403  0.28473642
   0.51936113  0.69729076  0.28129817
   0.36102056  0.12842703  0.09420268
   0.01058598  0.68974755  0.28365477
   0.75979577  0.20738567  0.28441032
   0.25748080  0.43828006  0.28001087
   0.93164527  0.78210957  0.18949456
   0.34748052  0.36223427  0.37677416
   0.93104162  0.78710418  0.47456044
   0.84794355  0.37048816  0.09729228
   0.60476826  0.61718663  0.37815168
   0.60321372  0.87445228  0.37757516
   0.68420634  0.78560656  0.18858490
   0.85639405  0.61479445  0.37784113
   0.77127005  0.95869315  0.28289330
   0.42794869  0.52498940  0.18592413
   0.85247467  0.86541735  0.37709211
   0.01704504  0.20152594  0.28161159
   0.68515027  0.52548753  0.18857896
   0.34745438  0.36970079  0.09397440
   0.43684426  0.28279884  0.46856307
   0.66943121  0.52015734  0.46989458
   0.10395999  0.60940576  0.09716832
   0.92190629  0.03152360  0.46669946
   0.84514079  0.61361234  0.09584801
   0.60033211  0.11896258  0.09691898
   0.09621810  0.60785813  0.37783241
   0.27656485  0.20405323  0.27995144
   0.51264639  0.95532173  0.28009022
   0.67944348  0.03526619  0.46733408
   0.93478364  0.52651355  0.46827996
   0.59918732  0.61008141  0.09453106
   0.52389437  0.44474133  0.27760700
   0.09945421  0.12892334  0.09579516
   0.93776523  0.04190364  0.18871929
   0.43131457  0.52984842  0.47064065
   0.75916103  0.45151198  0.27638425
   0.67939145  0.28085598  0.46451993
   0.59866680  0.11068209  0.37689847
   0.67454150  0.78249089  0.46862743
   0.84845535  0.12258687  0.37693997
   0.17878999  0.28294822  0.18565247
   0.34774679  0.86614653  0.37361085