       N       E                     dE             d eps       ncg     rms          rms(c)
DAV:   1     0.673735808247E+04    0.67374E+04   -0.31359E+05  2096   0.144E+03
DAV:   2     0.386893552448E+03   -0.63505E+04   -0.58090E+04  2096   0.354E+02
DAV:   3    -0.475836230975E+03   -0.86273E+03   -0.70445E+03  2264   0.156E+02
DAV:   4    -0.547291660702E+03   -0.71455E+02   -0.67352E+02  2360   0.459E+01
DAV:   5    -0.549106394155E+03   -0.18147E+01   -0.18080E+01  2384   0.772E+00    0.101E+02
RMM:   6    -0.708107742021E+03   -0.15900E+03   -0.90467E+02  2099   0.708E+01    0.188E+02
RMM:   7    -0.520414152351E+03    0.18769E+03   -0.22798E+02  2101   0.319E+01    0.103E+02
RMM:   8    -0.773038632828E+03   -0.25262E+03   -0.14133E+02  2098   0.240E+01    0.201E+02
RMM:   9    -0.632752963641E+03    0.14029E+03   -0.10260E+02  2100   0.208E+01    0.182E+02
RMM:  10    -0.495100055859E+03    0.13765E+03   -0.11802E+02  2103   0.234E+01    0.983E+01
RMM:  11    -0.491457446085E+03    0.36426E+01   -0.94201E+01  2104   0.213E+01    0.127E+02
RMM:  12    -0.482504465741E+03    0.89530E+01   -0.80826E+01  2104   0.202E+01    0.106E+02
RMM:  13    -0.456034604486E+03    0.26470E+02   -0.51629E+01  2104   0.159E+01    0.778E+01
RMM:  14    -0.446360914120E+03    0.96737E+01   -0.22431E+01  2102   0.102E+01    0.534E+01
RMM:  15    -0.447026828358E+03   -0.66591E+00   -0.13759E+01  2101   0.809E+00    0.543E+01
RMM:  16    -0.446746646642E+03    0.28018E+00   -0.12336E+01  2104   0.789E+00    0.425E+01
RMM:  17    -0.446674011878E+03    0.72635E-01   -0.45749E+00  2102   0.438E+00    0.436E+01
RMM:  18    -0.450209108895E+03   -0.35351E+01   -0.66070E+00  2103   0.530E+00    0.346E+01
RMM:  19    -0.454444374149E+03   -0.42353E+01   -0.44007E+00  2102   0.419E+00    0.382E+01
RMM:  20    -0.457234481833E+03   -0.27901E+01   -0.37330E+00  2105   0.382E+00    0.310E+01
RMM:  21    -0.459736262851E+03   -0.25018E+01   -0.32599E+00  2100   0.349E+00    0.277E+01
RMM:  22    -0.464224567114E+03   -0.44883E+01   -0.31473E+00  2102   0.340E+00    0.295E+01
RMM:  23    -0.465983952460E+03   -0.17594E+01   -0.27378E+00  2100   0.322E+00    0.198E+01
RMM:  24    -0.471121919270E+03   -0.51380E+01   -0.30579E+00  2102   0.317E+00    0.253E+01
RMM:  25    -0.475098685728E+03   -0.39768E+01   -0.32534E+00  2100   0.311E+00    0.195E+01
RMM:  26    -0.480506082073E+03   -0.54074E+01   -0.34562E+00  2101   0.322E+00    0.252E+01
RMM:  27    -0.482403212306E+03   -0.18971E+01   -0.19522E+00  2101   0.250E+00    0.206E+01
RMM:  28    -0.485468269946E+03   -0.30651E+01   -0.19689E+00  2099   0.213E+00    0.187E+01
RMM:  29    -0.486309823121E+03   -0.84155E+00   -0.69886E-01  2102   0.148E+00    0.158E+01
RMM:  30    -0.488047807045E+03   -0.17380E+01   -0.98556E-01  2099   0.160E+00    0.161E+01
RMM:  31    -0.489680234966E+03   -0.16324E+01   -0.14656E+00  2099   0.189E+00    0.127E+01
RMM:  32    -0.490680765478E+03   -0.10005E+01   -0.67786E-01  2102   0.135E+00    0.125E+01
RMM:  33    -0.491534513815E+03   -0.85375E+00   -0.58455E-01  2099   0.124E+00    0.126E+01
RMM:  34    -0.491849730138E+03   -0.31522E+00   -0.22942E-01  2100   0.871E-01    0.118E+01
RMM:  35    -0.492264710325E+03   -0.41498E+00   -0.31667E-01  2099   0.955E-01    0.111E+01
RMM:  36    -0.492740646072E+03   -0.47594E+00   -0.32908E-01  2099   0.103E+00    0.102E+01
RMM:  37    -0.493038553424E+03   -0.29791E+00   -0.27430E-01  2100   0.935E-01    0.722E+00
RMM:  38    -0.493265152863E+03   -0.22660E+00   -0.13917E-01  2101   0.686E-01    0.658E+00
RMM:  39    -0.493424927257E+03   -0.15977E+00   -0.10566E-01  2100   0.608E-01    0.613E+00
RMM:  40    -0.493510826817E+03   -0.85900E-01   -0.30698E-02  2103   0.332E-01    0.614E+00
RMM:  41    -0.493595470490E+03   -0.84644E-01   -0.27024E-02  2100   0.309E-01    0.612E+00
RMM:  42    -0.493665135444E+03   -0.69665E-01   -0.32331E-02  2100   0.338E-01    0.554E+00
RMM:  43    -0.493844024438E+03   -0.17889E+00   -0.77761E-02  2099   0.466E-01    0.459E+00
RMM:  44    -0.493982730346E+03   -0.13871E+00   -0.67974E-02  2100   0.493E-01    0.439E+00
RMM:  45    -0.494109517619E+03   -0.12679E+00   -0.42220E-02  2100   0.372E-01    0.353E+00
RMM:  46    -0.494167290916E+03   -0.57773E-01   -0.20750E-02  2100   0.286E-01    0.345E+00
RMM:  47    -0.494238348368E+03   -0.71057E-01   -0.15143E-02  2100   0.223E-01    0.297E+00
RMM:  48    -0.494300016283E+03   -0.61668E-01   -0.21321E-02  2100   0.282E-01    0.317E+00
RMM:  49    -0.494370408532E+03   -0.70392E-01   -0.31081E-02  2100   0.323E-01    0.262E+00
RMM:  50    -0.494382404569E+03   -0.11996E-01   -0.18760E-02  2100   0.268E-01    0.218E+00
RMM:  51    -0.494367496786E+03    0.14908E-01   -0.37057E-02  2100   0.350E-01    0.290E+00
RMM:  52    -0.494400668039E+03   -0.33171E-01   -0.13460E-02  2100   0.228E-01    0.221E+00
RMM:  53    -0.494454325288E+03   -0.53657E-01   -0.19052E-02  2100   0.226E-01    0.196E+00
RMM:  54    -0.494475055081E+03   -0.20730E-01   -0.11013E-02  2100   0.194E-01    0.201E+00
RMM:  55    -0.494486575865E+03   -0.11521E-01   -0.70834E-03  2100   0.158E-01    0.170E+00
RMM:  56    -0.494493668121E+03   -0.70923E-02   -0.16392E-02  2100   0.239E-01    0.160E+00
RMM:  57    -0.494476386134E+03    0.17282E-01   -0.92350E-03  2100   0.184E-01    0.121E+00
RMM:  58    -0.494470953674E+03    0.54325E-02   -0.35197E-03  2099   0.118E-01    0.129E+00
RMM:  59    -0.494461968874E+03    0.89848E-02   -0.32657E-03  2101   0.111E-01    0.104E+00
RMM:  60    -0.494462473684E+03   -0.50481E-03   -0.29358E-03  2100   0.102E-01    0.971E-01
RMM:  61    -0.494452841750E+03    0.96319E-02   -0.53429E-03  2100   0.141E-01    0.134E+00
RMM:  62    -0.494461659406E+03   -0.88177E-02   -0.20434E-03  2100   0.952E-02    0.716E-01
RMM:  63    -0.494467815781E+03   -0.61564E-02   -0.17780E-03  2100   0.791E-02    0.607E-01
RMM:  64    -0.494468519878E+03   -0.70410E-03   -0.13769E-03  2100   0.712E-02    0.535E-01
RMM:  65    -0.494471131135E+03   -0.26113E-02   -0.72576E-04  2100   0.523E-02    0.427E-01
RMM:  66    -0.494483655056E+03   -0.12524E-01   -0.10910E-03  2100   0.599E-02    0.474E-01
RMM:  67    -0.494485618597E+03   -0.19635E-02   -0.46197E-04  2099   0.439E-02    0.356E-01
RMM:  68    -0.494492965836E+03   -0.73472E-02   -0.42060E-04  2100   0.378E-02    0.295E-01
RMM:  69    -0.494502149198E+03   -0.91834E-02   -0.43881E-04  2100   0.395E-02    0.215E-01
RMM:  70    -0.494511129020E+03   -0.89798E-02   -0.31120E-04  2100   0.315E-02    0.172E-01
RMM:  71    -0.494515496999E+03   -0.43680E-02   -0.29119E-04  2100   0.321E-02    0.227E-01
RMM:  72    -0.494522223903E+03   -0.67269E-02   -0.19110E-04  2100   0.265E-02    0.111E-01
RMM:  73    -0.494530752643E+03   -0.85287E-02   -0.12487E-04  2100   0.172E-02    0.140E-01
RMM:  74    -0.494539426182E+03   -0.86735E-02   -0.13131E-04  2100   0.163E-02    0.947E-02
RMM:  75    -0.494550038004E+03   -0.10612E-01   -0.16263E-04  2100   0.150E-02    0.698E-02
RMM:  76    -0.494553290044E+03   -0.32520E-02   -0.59878E-05  2097   0.143E-02    0.107E-01
RMM:  77    -0.494560648703E+03   -0.73587E-02   -0.12907E-04  2099   0.152E-02    0.706E-02
RMM:  78    -0.494567340561E+03   -0.66919E-02   -0.11520E-04  2096   0.125E-02    0.688E-02
RMM:  79    -0.494572807051E+03   -0.54665E-02   -0.95836E-05  2096   0.103E-02    0.469E-02
RMM:  80    -0.494575901045E+03   -0.30940E-02   -0.52712E-05  2094   0.877E-03    0.555E-02
RMM:  81    -0.494578433091E+03   -0.25320E-02   -0.45247E-05  2083   0.815E-03    0.361E-02
RMM:  82    -0.494580335638E+03   -0.19025E-02   -0.40852E-05  2058   0.729E-03    0.345E-02
RMM:  83    -0.494581548694E+03   -0.12131E-02   -0.27002E-05  2005   0.611E-03    0.286E-02
RMM:  84    -0.494582284594E+03   -0.73590E-03   -0.15145E-05  1877   0.501E-03    0.265E-02
RMM:  85    -0.494582662992E+03   -0.37840E-03   -0.15952E-05  1833   0.438E-03    0.142E-02
RMM:  86    -0.494582690976E+03   -0.27984E-04   -0.49077E-06  1644   0.350E-03    0.230E-02
RMM:  87    -0.494582659303E+03    0.31673E-04   -0.43954E-06  1558   0.327E-03    0.112E-02
RMM:  88    -0.494582631884E+03    0.27419E-04   -0.14139E-06  1339   0.185E-03    0.801E-03
RMM:  89    -0.494582566993E+03    0.64891E-04   -0.13854E-06  1315   0.162E-03    0.768E-03
RMM:  90    -0.494582542128E+03    0.24865E-04   -0.62206E-07  1237   0.138E-03    0.593E-03
RMM:  91    -0.494582563824E+03   -0.21696E-04   -0.33970E-07  1210   0.109E-03    0.617E-03
RMM:  92    -0.494582576528E+03   -0.12704E-04   -0.17529E-07  1148   0.911E-04    0.411E-03
RMM:  93    -0.494582616026E+03   -0.39498E-04   -0.17368E-07  1131   0.694E-04    0.394E-03
RMM:  94    -0.494582662561E+03   -0.46535E-04   -0.17484E-07  1125   0.693E-04    0.325E-03
RMM:  95    -0.494582697930E+03   -0.35369E-04   -0.18431E-07  1117   0.647E-04    0.320E-03
RMM:  96    -0.494582724540E+03   -0.26610E-04   -0.16999E-07  1121   0.684E-04    0.342E-03
RMM:  97    -0.494582785029E+03   -0.60489E-04   -0.50439E-07  1154   0.683E-04    0.272E-03
RMM:  98    -0.494582796582E+03   -0.11553E-04   -0.13827E-07  1039   0.573E-04    0.216E-03
RMM:  99    -0.494582837461E+03   -0.40878E-04   -0.39928E-07  1146   0.592E-04    0.244E-03
RMM: 100    -0.494582859899E+03   -0.22438E-04   -0.24559E-07  1040   0.531E-04    0.152E-03
RMM: 101    -0.494582871687E+03   -0.11788E-04   -0.14261E-07   965   0.473E-04    0.154E-03
RMM: 102    -0.494582881007E+03   -0.93201E-05   -0.12007E-07   885   0.413E-04    0.112E-03
RMM: 103    -0.494582885622E+03   -0.46149E-05   -0.57133E-08   747   0.353E-04    0.862E-04
RMM: 104    -0.494582889162E+03   -0.35402E-05   -0.48925E-08   677   0.314E-04    0.720E-04
RMM: 105    -0.494582890733E+03   -0.15715E-05   -0.24699E-08   594   0.296E-04    0.570E-04
RMM: 106    -0.494582892060E+03   -0.13272E-05   -0.23453E-08   556   0.284E-04    0.493E-04
RMM: 107    -0.494582892650E+03   -0.58979E-06   -0.10489E-08   479   0.271E-04
   1 F= -.52934312E+03 E0= -.52934185E+03  d E =-.529343E+03  mag=    93.2911
       N       E                     dE             d eps       ncg     rms          rms(c)
DAV:   1    -0.492398957895E+03    0.21839E+01   -0.23440E+03  2096   0.589E+01    0.161E+01
RMM:   2    -0.506209416522E+03   -0.13810E+02   -0.70888E+01  2100   0.192E+01    0.458E+01
RMM:   3    -0.501452381785E+03    0.47570E+01   -0.18444E+01  2261   0.828E+00    0.292E+01
RMM:   4    -0.503535097376E+03   -0.20827E+01   -0.47440E+00  2107   0.412E+00    0.362E+01
RMM:   5    -0.500109588567E+03    0.34255E+01   -0.19915E+00  2109   0.280E+00    0.171E+01
RMM:   6    -0.499421862114E+03    0.68773E+00   -0.11260E+00  2100   0.213E+00    0.137E+01
RMM:   7    -0.499340321253E+03    0.81541E-01   -0.87379E-01  2101   0.182E+00    0.146E+01
RMM:   8    -0.498892399325E+03    0.44792E+00   -0.67127E-01  2100   0.169E+00    0.795E+00
RMM:   9    -0.498873290460E+03    0.19109E-01   -0.36304E-01  2102   0.123E+00    0.818E+00
RMM:  10    -0.498921227384E+03   -0.47937E-01   -0.37223E-01  2101   0.121E+00    0.824E+00
RMM:  11    -0.498834513981E+03    0.86713E-01   -0.29873E-01  2102   0.113E+00    0.721E+00
RMM:  12    -0.498799692834E+03    0.34821E-01   -0.20635E-01  2100   0.906E-01    0.580E+00
RMM:  13    -0.498740727113E+03    0.58966E-01   -0.10875E-01  2102   0.677E-01    0.369E+00
RMM:  14    -0.498718958979E+03    0.21768E-01   -0.57166E-02  2101   0.496E-01    0.263E+00
RMM:  15    -0.498714940566E+03    0.40184E-02   -0.30150E-02  2100   0.361E-01    0.196E+00
RMM:  16    -0.498712230947E+03    0.27096E-02   -0.12807E-02  2100   0.231E-01    0.122E+00
RMM:  17    -0.498715235018E+03   -0.30041E-02   -0.98665E-03  2101   0.208E-01    0.137E+00
RMM:  18    -0.498714803782E+03    0.43124E-03   -0.52652E-03  2100   0.145E-01    0.992E-01
RMM:  19    -0.498714664099E+03    0.13968E-03   -0.39926E-03  2100   0.128E-01    0.876E-01
RMM:  20    -0.498715031318E+03   -0.36722E-03   -0.23956E-03  2100   0.989E-02    0.625E-01
RMM:  21    -0.498715321644E+03   -0.29033E-03   -0.16614E-03  2100   0.827E-02    0.367E-01
RMM:  22    -0.498715896720E+03   -0.57508E-03   -0.89503E-04  2101   0.614E-02    0.351E-01
RMM:  23    -0.498716559831E+03   -0.66311E-03   -0.55179E-04  2101   0.471E-02    0.258E-01
RMM:  24    -0.498716790058E+03   -0.23023E-03   -0.30031E-04  2100   0.363E-02    0.161E-01
RMM:  25    -0.498717208917E+03   -0.41886E-03   -0.14983E-04  2100   0.240E-02    0.135E-01
RMM:  26    -0.498717457996E+03   -0.24908E-03   -0.88374E-05  2097   0.193E-02    0.101E-01
RMM:  27    -0.498717908237E+03   -0.45024E-03   -0.54932E-05  2098   0.146E-02    0.808E-02
RMM:  28    -0.498718101945E+03   -0.19371E-03   -0.31322E-05  2096   0.117E-02    0.472E-02
RMM:  29    -0.498718415881E+03   -0.31394E-03   -0.17600E-05  2093   0.812E-03    0.532E-02
RMM:  30    -0.498718566524E+03   -0.15064E-03   -0.10867E-05  1944   0.684E-03    0.321E-02
RMM:  31    -0.498718779783E+03   -0.21326E-03   -0.69062E-06  1876   0.528E-03    0.343E-02
RMM:  32    -0.498718944142E+03   -0.16436E-03   -0.42947E-06  1700   0.438E-03    0.246E-02
RMM:  33    -0.498719148309E+03   -0.20417E-03   -0.33583E-06  1592   0.371E-03    0.250E-02
RMM:  34    -0.498719304849E+03   -0.15654E-03   -0.24544E-06  1410   0.346E-03    0.149E-02
RMM:  35    -0.498719417835E+03   -0.11299E-03   -0.15759E-06  1284   0.264E-03    0.164E-02
RMM:  36    -0.498719561666E+03   -0.14383E-03   -0.13113E-06  1313   0.244E-03    0.101E-02
RMM:  37    -0.498719625421E+03   -0.63755E-04   -0.64419E-07  1208   0.168E-03    0.887E-03
RMM:  38    -0.498719729486E+03   -0.10406E-03   -0.60669E-07  1248   0.138E-03    0.640E-03
RMM:  39    -0.498719790879E+03   -0.61393E-04   -0.40237E-07  1209   0.123E-03    0.605E-03
RMM:  40    -0.498719941725E+03   -0.15085E-03   -0.10478E-06  1359   0.125E-03    0.575E-03
RMM:  41    -0.498720006712E+03   -0.64987E-04   -0.46959E-07  1225   0.118E-03    0.521E-03
RMM:  42    -0.498720124521E+03   -0.11781E-03   -0.10577E-06  1360   0.113E-03    0.563E-03
RMM:  43    -0.498720161278E+03   -0.36757E-04   -0.32996E-07  1219   0.981E-04    0.386E-03
RMM:  44    -0.498720219393E+03   -0.58115E-04   -0.55092E-07  1291   0.821E-04    0.392E-03
RMM:  45    -0.498720241600E+03   -0.22207E-04   -0.21625E-07  1153   0.777E-04    0.228E-03
RMM:  46    -0.498720268963E+03   -0.27363E-04   -0.28372E-07  1145   0.596E-04    0.244E-03
RMM:  47    -0.498720275580E+03   -0.66169E-05   -0.88360E-08  1071   0.564E-04    0.124E-03
RMM:  48    -0.498720286107E+03   -0.10527E-04   -0.94024E-08   942   0.407E-04    0.162E-03
RMM:  49    -0.498720290479E+03   -0.43726E-05   -0.40144E-08   852   0.370E-04    0.798E-04
RMM:  50    -0.498720294299E+03   -0.38194E-05   -0.28172E-08   642   0.306E-04    0.106E-03
RMM:  51    -0.498720296164E+03   -0.18649E-05   -0.15924E-08   596   0.276E-04    0.449E-04
RMM:  52    -0.498720297346E+03   -0.11823E-05   -0.11453E-08   534   0.272E-04    0.785E-04
RMM:  53    -0.498720297974E+03   -0.62830E-06   -0.41591E-09   441   0.253E-04
   2 F= -.53352523E+03 E0= -.53352709E+03  d E =-.418211E+01  mag=    93.0236
       N       E                     dE             d eps       ncg     rms          rms(c)
DAV:   1    -0.498698273211E+03    0.22024E-01   -0.12752E+01  2144   0.412E+00    0.972E-01
RMM:   2    -0.498749905140E+03   -0.51632E-01   -0.22382E-01  2101   0.105E+00    0.274E+00
RMM:   3    -0.498755675695E+03   -0.57706E-02   -0.59561E-02  2341   0.448E-01    0.298E+00
RMM:   4    -0.498755299440E+03    0.37626E-03   -0.21661E-02  2104   0.285E-01    0.302E+00
RMM:   5    -0.498730285399E+03    0.25014E-01   -0.13779E-02  2100   0.242E-01    0.114E+00
RMM:   6    -0.498726230399E+03    0.40550E-02   -0.37958E-03  2100   0.131E-01    0.439E-01
RMM:   7    -0.498726859043E+03   -0.62864E-03   -0.17508E-03  2101   0.839E-02    0.685E-01
RMM:   8    -0.498725740194E+03    0.11188E-02   -0.14320E-03  2103   0.731E-02    0.410E-01
RMM:   9    -0.498725900977E+03   -0.16078E-03   -0.16711E-03  2100   0.811E-02    0.525E-01
RMM:  10    -0.498725995412E+03   -0.94435E-04   -0.20100E-03  2103   0.859E-02    0.553E-01
RMM:  11    -0.498725341777E+03    0.65363E-03   -0.12183E-03  2100   0.704E-02    0.331E-01
RMM:  12    -0.498725185884E+03    0.15589E-03   -0.49264E-04  2102   0.444E-02    0.252E-01
RMM:  13    -0.498725015697E+03    0.17019E-03   -0.18182E-04  2100   0.278E-02    0.983E-02
RMM:  14    -0.498725014545E+03    0.11517E-05   -0.57842E-05  2099   0.152E-02    0.770E-02
RMM:  15    -0.498725020256E+03   -0.57110E-05   -0.35182E-05  2096   0.116E-02    0.517E-02
RMM:  16    -0.498725046292E+03   -0.26036E-04   -0.29703E-05  2100   0.995E-03    0.487E-02
RMM:  17    -0.498725061763E+03   -0.15471E-04   -0.17572E-05  2097   0.761E-03    0.288E-02
RMM:  18    -0.498725087500E+03   -0.25736E-04   -0.11937E-05  2071   0.653E-03    0.407E-02
RMM:  19    -0.498725113020E+03   -0.25521E-04   -0.81324E-06  1916   0.545E-03    0.233E-02
RMM:  20    -0.498725127317E+03   -0.14297E-04   -0.31309E-06  1579   0.383E-03    0.184E-02
RMM:  21    -0.498725144896E+03   -0.17579E-04   -0.14424E-06  1222   0.270E-03    0.121E-02
RMM:  22    -0.498725157628E+03   -0.12732E-04   -0.78680E-07  1194   0.205E-03    0.956E-03
RMM:  23    -0.498725182854E+03   -0.25226E-04   -0.61490E-07  1230   0.163E-03    0.977E-03
RMM:  24    -0.498725200092E+03   -0.17238E-04   -0.45629E-07  1205   0.150E-03    0.608E-03
RMM:  25    -0.498725228768E+03   -0.28676E-04   -0.42231E-07  1238   0.112E-03    0.793E-03
RMM:  26    -0.498725246861E+03   -0.18093E-04   -0.31730E-07  1211   0.118E-03    0.580E-03
RMM:  27    -0.498725279526E+03   -0.32665E-04   -0.48618E-07  1252   0.106E-03    0.649E-03
RMM:  28    -0.498725300592E+03   -0.21067E-04   -0.39679E-07  1232   0.119E-03    0.436E-03
RMM:  29    -0.498725330411E+03   -0.29819E-04   -0.53556E-07  1276   0.987E-04    0.474E-03
RMM:  30    -0.498725343039E+03   -0.12628E-04   -0.27124E-07  1211   0.982E-04    0.331E-03
RMM:  31    -0.498725354619E+03   -0.11580E-04   -0.21820E-07  1180   0.730E-04    0.380E-03
RMM:  32    -0.498725362544E+03   -0.79249E-05   -0.15761E-07  1165   0.707E-04    0.229E-03
RMM:  33    -0.498725368221E+03   -0.56777E-05   -0.11388E-07  1096   0.571E-04    0.323E-03
RMM:  34    -0.498725374100E+03   -0.58791E-05   -0.12481E-07  1116   0.586E-04    0.180E-03
RMM:  35    -0.498725377012E+03   -0.29119E-05   -0.82201E-08  1061   0.486E-04    0.240E-03
RMM:  36    -0.498725379080E+03   -0.20673E-05   -0.76300E-08  1018   0.460E-04    0.127E-03
RMM:  37    -0.498725379401E+03   -0.32083E-06   -0.23131E-08   775   0.339E-04
   3 F= -.53353916E+03 E0= -.53354203E+03  d E =-.419605E+01  mag=    92.9774
       N       E                     dE             d eps       ncg     rms          rms(c)
DAV:   1    -0.498384736555E+03    0.34064E+00   -0.42593E+02  2096   0.255E+01    0.814E+00
RMM:   2    -0.500809552615E+03   -0.24248E+01   -0.88854E+00  2102   0.686E+00    0.177E+01
RMM:   3    -0.502386178281E+03   -0.15766E+01   -0.32627E+00  2191   0.364E+00    0.260E+01
RMM:   4    -0.501212676661E+03    0.11735E+01   -0.14081E+00  2104   0.233E+00    0.220E+01
RMM:   5    -0.499915645863E+03    0.12970E+01   -0.86378E-01  2100   0.191E+00    0.830E+00
RMM:   6    -0.499651548983E+03    0.26410E+00   -0.31120E-01  2100   0.115E+00    0.365E+00
RMM:   7    -0.499703088870E+03   -0.51540E-01   -0.12070E-01  2101   0.710E-01    0.502E+00
RMM:   8    -0.499638912940E+03    0.64176E-01   -0.63591E-02  2103   0.531E-01    0.271E+00
RMM:   9    -0.499647517803E+03   -0.86049E-02   -0.50465E-02  2101   0.460E-01    0.312E+00
RMM:  10    -0.499639597388E+03    0.79204E-02   -0.55954E-02  2100   0.468E-01    0.277E+00
RMM:  11    -0.499627223223E+03    0.12374E-01   -0.42884E-02  2101   0.425E-01    0.215E+00
RMM:  12    -0.499622315740E+03    0.49075E-02   -0.30930E-02  2101   0.354E-01    0.180E+00
RMM:  13    -0.499616921616E+03    0.53941E-02   -0.17166E-02  2102   0.268E-01    0.132E+00
RMM:  14    -0.499613203639E+03    0.37180E-02   -0.79356E-03  2100   0.186E-01    0.824E-01
RMM:  15    -0.499612081796E+03    0.11218E-02   -0.33466E-03  2101   0.121E-01    0.500E-01
RMM:  16    -0.499612246752E+03   -0.16496E-03   -0.15867E-03  2100   0.809E-02    0.356E-01
RMM:  17    -0.499612642108E+03   -0.39536E-03   -0.64680E-04  2101   0.518E-02    0.299E-01
RMM:  18    -0.499613378103E+03   -0.73600E-03   -0.44765E-04  2100   0.423E-02    0.291E-01
RMM:  19    -0.499613751738E+03   -0.37363E-03   -0.26916E-04  2101   0.332E-02    0.176E-01
RMM:  20    -0.499614336137E+03   -0.58440E-03   -0.18073E-04  2100   0.267E-02    0.166E-01
RMM:  21    -0.499614708987E+03   -0.37285E-03   -0.10957E-04  2100   0.215E-02    0.827E-02
RMM:  22    -0.499615127427E+03   -0.41844E-03   -0.57395E-05  2100   0.153E-02    0.933E-02
RMM:  23    -0.499615456361E+03   -0.32893E-03   -0.31847E-05  2096   0.116E-02    0.524E-02
RMM:  24    -0.499615836955E+03   -0.38059E-03   -0.21571E-05  2096   0.940E-03    0.557E-02
RMM:  25    -0.499616283742E+03   -0.44679E-03   -0.14850E-05  2067   0.749E-03    0.326E-02
RMM:  26    -0.499616592957E+03   -0.30921E-03   -0.82941E-06  1881   0.561E-03    0.369E-02
RMM:  27    -0.499617022837E+03   -0.42988E-03   -0.65409E-06  1816   0.458E-03    0.317E-02
RMM:  28    -0.499617387062E+03   -0.36422E-03   -0.60478E-06  1813   0.447E-03    0.373E-02
RMM:  29    -0.499617880684E+03   -0.49362E-03   -0.67488E-06  1800   0.390E-03    0.272E-02
RMM:  30    -0.499618404392E+03   -0.52371E-03   -0.90634E-06  1863   0.457E-03    0.310E-02
RMM:  31    -0.499618978006E+03   -0.57361E-03   -0.10962E-05  1857   0.430E-03    0.232E-02
RMM:  32    -0.499619271239E+03   -0.29323E-03   -0.58689E-06  1757   0.381E-03    0.217E-02
RMM:  33    -0.499619809324E+03   -0.53808E-03   -0.15479E-05  1907   0.439E-03    0.187E-02
RMM:  34    -0.499620000085E+03   -0.19076E-03   -0.55005E-06  1675   0.327E-03    0.121E-02
RMM:  35    -0.499620161272E+03   -0.16119E-03   -0.59689E-06  1678   0.301E-03    0.151E-02
RMM:  36    -0.499620216059E+03   -0.54787E-04   -0.26717E-06  1436   0.243E-03    0.693E-03
RMM:  37    -0.499620245011E+03   -0.28952E-04   -0.26382E-06  1448   0.203E-03    0.106E-02
RMM:  38    -0.499620248199E+03   -0.31884E-05   -0.10355E-06  1275   0.185E-03    0.554E-03
RMM:  39    -0.499620254461E+03   -0.62618E-05   -0.58688E-07  1237   0.129E-03    0.703E-03
RMM:  40    -0.499620262219E+03   -0.77582E-05   -0.38253E-07  1218   0.125E-03    0.279E-03
RMM:  41    -0.499620272711E+03   -0.10492E-04   -0.17993E-07  1187   0.765E-04    0.420E-03
RMM:  42    -0.499620279566E+03   -0.68558E-05   -0.10149E-07  1100   0.698E-04    0.169E-03
RMM:  43    -0.499620288329E+03   -0.87630E-05   -0.60069E-08   989   0.437E-04    0.236E-03
RMM:  44    -0.499620296802E+03   -0.84730E-05   -0.51095E-08   966   0.428E-04    0.120E-03
RMM:  45    -0.499620304937E+03   -0.81341E-05   -0.41610E-08   800   0.341E-04    0.168E-03
RMM:  46    -0.499620313814E+03   -0.88773E-05   -0.49808E-08   818   0.359E-04    0.997E-04
RMM:  47    -0.499620320670E+03   -0.68565E-05   -0.47807E-08   823   0.335E-04    0.128E-03
RMM:  48    -0.499620327663E+03   -0.69923E-05   -0.54131E-08   843   0.342E-04    0.742E-04
RMM:  49    -0.499620331437E+03   -0.37746E-05   -0.29977E-08   677   0.302E-04    0.941E-04
RMM:  50    -0.499620335352E+03   -0.39146E-05   -0.28655E-08   644   0.289E-04    0.505E-04
RMM:  51    -0.499620337766E+03   -0.24138E-05   -0.27567E-08   593   0.286E-04    0.680E-04
RMM:  52    -0.499620339565E+03   -0.17997E-05   -0.16238E-08   511   0.274E-04    0.334E-04
RMM:  53    -0.499620340288E+03   -0.72249E-06   -0.10434E-08   425   0.264E-04
   4 F= -.53448781E+03 E0= -.53449827E+03  d E =-.948642E+00  mag=    92.7876
       N       E                     dE             d eps       ncg     rms          rms(c)
DAV:   1    -0.499559174595E+03    0.61165E-01   -0.34196E+01  2104   0.711E+00    0.221E+00
RMM:   2    -0.499759577096E+03   -0.20040E+00   -0.58552E-01  2102   0.177E+00    0.536E+00
RMM:   3    -0.499822214332E+03   -0.62637E-01   -0.21985E-01  2202   0.944E-01    0.657E+00
RMM:   4    -0.499772886828E+03    0.49328E-01   -0.11073E-01  2100   0.661E-01    0.589E+00
RMM:   5    -0.499668813723E+03    0.10407E+00   -0.64786E-02  2100   0.530E-01    0.222E+00
RMM:   6    -0.499650702328E+03    0.18111E-01   -0.14565E-02  2101   0.258E-01    0.680E-01
RMM:   7    -0.499653008541E+03   -0.23062E-02   -0.55015E-03  2102   0.150E-01    0.113E+00
RMM:   8    -0.499649720318E+03    0.32882E-02   -0.36090E-03  2102   0.123E-01    0.622E-01
RMM:   9    -0.499650304689E+03   -0.58437E-03   -0.38958E-03  2101   0.128E-01    0.777E-01
RMM:  10    -0.499650858194E+03   -0.55351E-03   -0.46802E-03  2100   0.134E-01    0.896E-01
RMM:  11    -0.499648525666E+03    0.23325E-02   -0.28844E-03  2104   0.111E-01    0.365E-01
RMM:  12    -0.499648512633E+03    0.13033E-04   -0.12216E-03  2100   0.689E-02    0.360E-01
RMM:  13    -0.499648231194E+03    0.28144E-03   -0.55197E-04  2100   0.482E-02    0.203E-01
RMM:  14    -0.499648203208E+03    0.27986E-04   -0.22971E-04  2100   0.311E-02    0.161E-01
RMM:  15    -0.499648165114E+03    0.38094E-04   -0.10274E-04  2097   0.210E-02    0.867E-02
RMM:  16    -0.499648176994E+03   -0.11880E-04   -0.43039E-05  2100   0.132E-02    0.656E-02
RMM:  17    -0.499648208660E+03   -0.31666E-04   -0.31870E-05  2096   0.109E-02    0.548E-02
RMM:  18    -0.499648246340E+03   -0.37680E-04   -0.23659E-05  2096   0.954E-03    0.470E-02
RMM:  19    -0.499648280836E+03   -0.34495E-04   -0.15767E-05  2096   0.765E-03    0.334E-02
RMM:  20    -0.499648301120E+03   -0.20284E-04   -0.66069E-06  1860   0.526E-03    0.236E-02
RMM:  21    -0.499648330493E+03   -0.29373E-04   -0.29403E-06  1531   0.375E-03    0.174E-02
RMM:  22    -0.499648350951E+03   -0.20458E-04   -0.16975E-06  1260   0.312E-03    0.127E-02
RMM:  23    -0.499648378779E+03   -0.27828E-04   -0.94611E-07  1222   0.218E-03    0.991E-03
RMM:  24    -0.499648399557E+03   -0.20778E-04   -0.57143E-07  1202   0.174E-03    0.663E-03
RMM:  25    -0.499648436033E+03   -0.36476E-04   -0.40320E-07  1231   0.120E-03    0.746E-03
RMM:  26    -0.499648456675E+03   -0.20642E-04   -0.27011E-07  1199   0.114E-03    0.568E-03
RMM:  27    -0.499648494523E+03   -0.37848E-04   -0.33789E-07  1236   0.928E-04    0.645E-03
RMM:  28    -0.499648534590E+03   -0.40067E-04   -0.41260E-07  1248   0.112E-03    0.480E-03
RMM:  29    -0.499648584556E+03   -0.49966E-04   -0.58875E-07  1283   0.105E-03    0.566E-03
RMM:  30    -0.499648623035E+03   -0.38480E-04   -0.53453E-07  1259   0.113E-03    0.389E-03
RMM:  31    -0.499648658110E+03   -0.35075E-04   -0.56710E-07  1285   0.999E-04    0.509E-03
RMM:  32    -0.499648682313E+03   -0.24202E-04   -0.45423E-07  1248   0.100E-03    0.267E-03
RMM:  33    -0.499648697741E+03   -0.15429E-04   -0.34914E-07  1212   0.811E-04    0.375E-03
RMM:  34    -0.499648706374E+03   -0.86326E-05   -0.28724E-07  1226   0.810E-04    0.193E-03
RMM:  35    -0.499648708012E+03   -0.16379E-05   -0.13048E-07  1073   0.566E-04    0.209E-03
RMM:  36    -0.499648707557E+03    0.45517E-06   -0.87977E-08  1016   0.478E-04
   5 F= -.53453600E+03 E0= -.53454738E+03  d E =-.996840E+00  mag=    92.7569
       N       E                     dE             d eps       ncg     rms          rms(c)
DAV:   1    -0.499503285625E+03    0.14542E+00   -0.13673E+02  2096   0.144E+01    0.486E+00
RMM:   2    -0.500231420476E+03   -0.72813E+00   -0.27120E+00  2100   0.388E+00    0.967E+00
RMM:   3    -0.500316106919E+03   -0.84686E-01   -0.12745E+00  2149   0.232E+00    0.109E+01
RMM:   4    -0.500048692602E+03    0.26741E+00   -0.38790E-01  2100   0.132E+00    0.574E+00
RMM:   5    -0.499931511300E+03    0.11718E+00   -0.10656E-01  2102   0.696E-01    0.170E+00
RMM:   6    -0.499938641609E+03   -0.71303E-02   -0.32569E-02  2105   0.360E-01    0.235E+00
RMM:   7    -0.499923764538E+03    0.14877E-01   -0.14080E-02  2100   0.244E-01    0.124E+00
RMM:   8    -0.499920273041E+03    0.34915E-02   -0.95310E-03  2099   0.206E-01    0.100E+00
RMM:   9    -0.499931707387E+03   -0.11434E-01   -0.13973E-02  2103   0.230E-01    0.200E+00
RMM:  10    -0.499925218232E+03    0.64892E-02   -0.10519E-02  2104   0.202E-01    0.161E+00
RMM:  11    -0.499918002169E+03    0.72161E-02   -0.72539E-03  2102   0.171E-01    0.928E-01
RMM:  12    -0.499915776222E+03    0.22259E-02   -0.42048E-03  2100   0.130E-01    0.591E-01
RMM:  13    -0.499915240607E+03    0.53561E-03   -0.17228E-03  2100   0.858E-02    0.371E-01
RMM:  14    -0.499915072268E+03    0.16834E-03   -0.60785E-04  2100   0.526E-02    0.210E-01
RMM:  15    -0.499915127382E+03   -0.55114E-04   -0.25067E-04  2100   0.330E-02    0.118E-01
RMM:  16    -0.499915356770E+03   -0.22939E-03   -0.13642E-04  2099   0.224E-02    0.107E-01
RMM:  17    -0.499915593952E+03   -0.23718E-03   -0.88281E-05  2099   0.182E-02    0.969E-02
RMM:  18    -0.499915900934E+03   -0.30698E-03   -0.74178E-05  2098   0.162E-02    0.954E-02
RMM:  19    -0.499916119827E+03   -0.21889E-03   -0.45899E-05  2100   0.130E-02    0.466E-02
RMM:  20    -0.499916318178E+03   -0.19835E-03   -0.21521E-05  2096   0.913E-03    0.522E-02
RMM:  21    -0.499916468315E+03   -0.15014E-03   -0.11705E-05  1972   0.698E-03    0.310E-02
RMM:  22    -0.499916607726E+03   -0.13941E-03   -0.60723E-06  1823   0.507E-03    0.308E-02
RMM:  23    -0.499916763940E+03   -0.15621E-03   -0.37898E-06  1644   0.393E-03    0.238E-02
RMM:  24    -0.499916920868E+03   -0.15693E-03   -0.29719E-06  1531   0.345E-03    0.233E-02
RMM:  25    -0.499917218093E+03   -0.29722E-03   -0.42958E-06  1627   0.334E-03    0.179E-02
RMM:  26    -0.499917455920E+03   -0.23783E-03   -0.38804E-06  1613   0.334E-03    0.191E-02
RMM:  27    -0.499917911263E+03   -0.45534E-03   -0.95804E-06  1817   0.373E-03    0.182E-02
RMM:  28    -0.499918158199E+03   -0.24694E-03   -0.52681E-06  1646   0.334E-03    0.155E-02
RMM:  29    -0.499918416496E+03   -0.25830E-03   -0.65887E-06  1712   0.323E-03    0.157E-02
RMM:  30    -0.499918572866E+03   -0.15637E-03   -0.42308E-06  1531   0.281E-03    0.845E-03
RMM:  31    -0.499918678265E+03   -0.10540E-03   -0.32428E-06  1477   0.229E-03    0.110E-02
RMM:  32    -0.499918721009E+03   -0.42745E-04   -0.16039E-06  1366   0.209E-03    0.568E-03
RMM:  33    -0.499918744045E+03   -0.23036E-04   -0.10299E-06  1320   0.152E-03    0.688E-03
RMM:  34    -0.499918751151E+03   -0.71059E-05   -0.82199E-07  1297   0.146E-03    0.311E-03
RMM:  35    -0.499918750233E+03    0.91841E-06   -0.32081E-07  1224   0.941E-04
   6 F= -.53483428E+03 E0= -.53484547E+03  d E =-.298279E+00  mag=    92.6563
       N       E                     dE             d eps       ncg     rms          rms(c)
DAV:   1    -0.499866404729E+03    0.52346E-01   -0.23080E+01  2096   0.591E+00    0.194E+00
RMM:   2    -0.499980678225E+03   -0.11427E+00   -0.39341E-01  2100   0.147E+00    0.379E+00
RMM:   3    -0.499998098372E+03   -0.17420E-01   -0.19449E-01  2154   0.907E-01    0.428E+00
RMM:   4    -0.499966189059E+03    0.31909E-01   -0.62683E-02  2101   0.529E-01    0.299E+00
RMM:   5    -0.499939705058E+03    0.26484E-01   -0.18741E-02  2102   0.291E-01    0.116E+00
RMM:   6    -0.499934725140E+03    0.49799E-02   -0.36447E-03  2107   0.118E-01    0.528E-01
RMM:   7    -0.499935529417E+03   -0.80428E-03   -0.26662E-03  2100   0.104E-01    0.834E-01
RMM:   8    -0.499933291088E+03    0.22383E-02   -0.17829E-03  2101   0.880E-02    0.397E-01
RMM:   9    -0.499933657280E+03   -0.36619E-03   -0.18267E-03  2101   0.874E-02    0.560E-01
RMM:  10    -0.499933903141E+03   -0.24586E-03   -0.27047E-03  2104   0.983E-02    0.679E-01
RMM:  11    -0.499932412264E+03    0.14909E-02   -0.14709E-03  2100   0.781E-02    0.220E-01
RMM:  12    -0.499932370676E+03    0.41588E-04   -0.40936E-04  2101   0.390E-02    0.181E-01
RMM:  13    -0.499932328167E+03    0.42509E-04   -0.16071E-04  2100   0.256E-02    0.996E-02
RMM:  14    -0.499932350067E+03   -0.21900E-04   -0.60523E-05  2097   0.159E-02    0.727E-02
RMM:  15    -0.499932379648E+03   -0.29581E-04   -0.28595E-05  2096   0.105E-02    0.416E-02
RMM:  16    -0.499932434497E+03   -0.54849E-04   -0.19151E-05  2096   0.838E-03    0.450E-02
RMM:  17    -0.499932508675E+03   -0.74179E-04   -0.18542E-05  2096   0.792E-03    0.417E-02
RMM:  18    -0.499932569282E+03   -0.60607E-04   -0.13361E-05  2092   0.698E-03    0.332E-02
RMM:  19    -0.499932623819E+03   -0.54537E-04   -0.74046E-06  1940   0.526E-03    0.182E-02
RMM:  20    -0.499932658544E+03   -0.34725E-04   -0.26180E-06  1496   0.354E-03    0.171E-02
RMM:  21    -0.499932695361E+03   -0.36817E-04   -0.13530E-06  1237   0.275E-03    0.101E-02
RMM:  22    -0.499932724421E+03   -0.29060E-04   -0.70962E-07  1207   0.183E-03    0.975E-03
RMM:  23    -0.499932773413E+03   -0.48993E-04   -0.63688E-07  1253   0.153E-03    0.895E-03
RMM:  24    -0.499932813557E+03   -0.40144E-04   -0.52460E-07  1228   0.143E-03    0.891E-03
RMM:  25    -0.499932897847E+03   -0.84289E-04   -0.96714E-07  1327   0.143E-03    0.801E-03
RMM:  26    -0.499932960608E+03   -0.62761E-04   -0.83146E-07  1290   0.153E-03    0.681E-03
RMM:  27    -0.499933057343E+03   -0.96735E-04   -0.17462E-06  1406   0.157E-03    0.720E-03
RMM:  28    -0.499933111811E+03   -0.54468E-04   -0.10520E-06  1328   0.153E-03    0.454E-03
RMM:  29    -0.499933159662E+03   -0.47851E-04   -0.11411E-06  1353   0.133E-03    0.593E-03
RMM:  30    -0.499933182216E+03   -0.22554E-04   -0.64474E-07  1283   0.125E-03    0.283E-03
RMM:  31    -0.499933197410E+03   -0.15193E-04   -0.53593E-07  1285   0.935E-04    0.336E-03
RMM:  32    -0.499933201200E+03   -0.37898E-05   -0.23990E-07  1178   0.840E-04    0.186E-03
RMM:  33    -0.499933202074E+03   -0.87429E-06   -0.13919E-07  1055   0.549E-04
   7 F= -.53486248E+03 E0= -.53487308E+03  d E =-.326473E+00  mag=    92.6205
       N       E                     dE             d eps       ncg     rms          rms(c)
DAV:   1    -0.499886518376E+03    0.46683E-01   -0.45526E+01  2096   0.811E+00    0.237E+00
RMM:   2    -0.500087131721E+03   -0.20061E+00   -0.79290E-01  2100   0.210E+00    0.528E+00
RMM:   3    -0.500194770235E+03   -0.10764E+00   -0.30067E-01  2224   0.107E+00    0.729E+00
RMM:   4    -0.500155103773E+03    0.39666E-01   -0.10373E-01  2106   0.639E-01    0.570E+00
RMM:   5    -0.500019726210E+03    0.13538E+00   -0.46715E-02  2101   0.451E-01    0.167E+00
RMM:   6    -0.500013440463E+03    0.62857E-02   -0.13715E-02  2100   0.240E-01    0.102E+00
RMM:   7    -0.500011824579E+03    0.16159E-02   -0.56285E-03  2100   0.150E-01    0.927E-01
RMM:   8    -0.500009536226E+03    0.22884E-02   -0.37502E-03  2102   0.127E-01    0.639E-01
RMM:   9    -0.500009305871E+03    0.23035E-03   -0.35711E-03  2102   0.119E-01    0.658E-01
RMM:  10    -0.500009218937E+03    0.86934E-04   -0.48117E-03  2103   0.135E-01    0.710E-01
RMM:  11    -0.500007929414E+03    0.12895E-02   -0.31787E-03  2107   0.112E-01    0.510E-01
RMM:  12    -0.500007237110E+03    0.69230E-03   -0.12934E-03  2102   0.721E-02    0.269E-01
RMM:  13    -0.500007295958E+03   -0.58848E-04   -0.51962E-04  2101   0.458E-02    0.259E-01
RMM:  14    -0.500007149068E+03    0.14689E-03   -0.22994E-04  2100   0.318E-02    0.126E-01
RMM:  15    -0.500007178617E+03   -0.29549E-04   -0.10021E-04  2100   0.203E-02    0.118E-01
RMM:  16    -0.500007175282E+03    0.33350E-05   -0.53813E-05  2097   0.147E-02    0.540E-02
RMM:  17    -0.500007223318E+03   -0.48036E-04   -0.30925E-05  2097   0.111E-02    0.649E-02
RMM:  18    -0.500007306087E+03   -0.82769E-04   -0.25938E-05  2099   0.939E-03    0.436E-02
RMM:  19    -0.500007351816E+03   -0.45729E-04   -0.12956E-05  2094   0.711E-03    0.328E-02
RMM:  20    -0.500007446513E+03   -0.94696E-04   -0.80072E-06  1968   0.538E-03    0.327E-02
RMM:  21    -0.500007503938E+03   -0.57425E-04   -0.45637E-06  1723   0.454E-03    0.169E-02
RMM:  22    -0.500007576509E+03   -0.72571E-04   -0.22923E-06  1413   0.320E-03    0.190E-02
RMM:  23    -0.500007645541E+03   -0.69032E-04   -0.15695E-06  1265   0.288E-03    0.112E-02
RMM:  24    -0.500007740223E+03   -0.94683E-04   -0.10539E-06  1301   0.198E-03    0.135E-02
RMM:  25    -0.500007828460E+03   -0.88237E-04   -0.91799E-07  1259   0.196E-03    0.958E-03
RMM:  26    -0.500007926451E+03   -0.97991E-04   -0.96015E-07  1311   0.166E-03    0.120E-02
RMM:  27    -0.500008102858E+03   -0.17641E-03   -0.20089E-06  1411   0.199E-03    0.959E-03
RMM:  28    -0.500008234797E+03   -0.13194E-03   -0.16694E-06  1369   0.194E-03    0.104E-02
RMM:  29    -0.500008419148E+03   -0.18435E-03   -0.33353E-06  1494   0.212E-03    0.671E-03
RMM:  30    -0.500008508580E+03   -0.89432E-04   -0.15753E-06  1376   0.169E-03    0.621E-03
RMM:  31    -0.500008579984E+03   -0.71405E-04   -0.17092E-06  1405   0.156E-03    0.439E-03
RMM:  32    -0.500008604367E+03   -0.24383E-04   -0.67514E-07  1304   0.122E-03    0.471E-03
RMM:  33    -0.500008616517E+03   -0.12150E-04   -0.80386E-07  1341   0.109E-03    0.303E-03
RMM:  34    -0.500008613147E+03    0.33702E-05   -0.25007E-07  1203   0.857E-04    0.210E-03
RMM:  35    -0.500008608195E+03    0.49516E-05   -0.14776E-07  1097   0.581E-04    0.189E-03
RMM:  36    -0.500008606354E+03    0.18411E-05   -0.55277E-08   984   0.479E-04    0.120E-03
RMM:  37    -0.500008605161E+03    0.11935E-05   -0.24360E-08   718   0.320E-04    0.957E-04
RMM:  38    -0.500008605526E+03   -0.36501E-06   -0.79404E-09   575   0.290E-04
   8 F= -.53495011E+03 E0= -.53495998E+03  d E =-.876331E-01  mag=    92.6107
       N       E                     dE             d eps       ncg     rms          rms(c)
DAV:   1    -0.499993498203E+03    0.15107E-01   -0.64546E+00  2108   0.305E+00    0.879E-01
RMM:   2    -0.500020326330E+03   -0.26828E-01   -0.10589E-01  2100   0.763E-01    0.190E+00
RMM:   3    -0.500034577619E+03   -0.14251E-01   -0.42022E-02  2212   0.403E-01    0.264E+00
RMM:   4    -0.500030860662E+03    0.37170E-02   -0.14775E-02  2102   0.243E-01    0.215E+00
RMM:   5    -0.500011989268E+03    0.18871E-01   -0.62691E-03  2103   0.166E-01    0.613E-01
RMM:   6    -0.500011046019E+03    0.94325E-03   -0.16409E-03  2101   0.831E-02    0.299E-01
RMM:   7    -0.500010969780E+03    0.76239E-04   -0.65335E-04  2101   0.509E-02    0.335E-01
RMM:   8    -0.500010587568E+03    0.38221E-03   -0.50689E-04  2100   0.457E-02    0.214E-01
RMM:   9    -0.500010615975E+03   -0.28407E-04   -0.56776E-04  2103   0.471E-02    0.270E-01
RMM:  10    -0.500010515735E+03    0.10024E-03   -0.70942E-04  2106   0.510E-02    0.253E-01
RMM:  11    -0.500010340267E+03    0.17547E-03   -0.37795E-04  2105   0.393E-02    0.171E-01
RMM:  12    -0.500010234569E+03    0.10570E-03   -0.12931E-04  2101   0.227E-02    0.797E-02
RMM:  13    -0.500010232711E+03    0.18583E-05   -0.38160E-05  2096   0.125E-02    0.582E-02
RMM:  14    -0.500010233023E+03   -0.31196E-06   -0.16699E-05  2094   0.822E-03    0.345E-02
RMM:  15    -0.500010242961E+03   -0.99384E-05   -0.91423E-06  2060   0.602E-03    0.313E-02
RMM:  16    -0.500010253956E+03   -0.10995E-04   -0.68259E-06  2068   0.478E-03    0.194E-02
RMM:  17    -0.500010264715E+03   -0.10760E-04   -0.36224E-06  1623   0.382E-03    0.187E-02
RMM:  18    -0.500010289721E+03   -0.25005E-04   -0.33272E-06  1513   0.376E-03    0.175E-02
RMM:  19    -0.500010302422E+03   -0.12702E-04   -0.18967E-06  1218   0.329E-03    0.844E-03
RMM:  20    -0.500010318225E+03   -0.15803E-04   -0.87256E-07  1189   0.206E-03    0.100E-02
RMM:  21    -0.500010333855E+03   -0.15630E-04   -0.51442E-07  1188   0.172E-03    0.545E-03
RMM:  22    -0.500010346918E+03   -0.13063E-04   -0.22330E-07  1176   0.103E-03    0.545E-03
RMM:  23    -0.500010366105E+03   -0.19187E-04   -0.16800E-07  1189   0.851E-04    0.391E-03
RMM:  24    -0.500010386847E+03   -0.20741E-04   -0.15453E-07  1188   0.726E-04    0.456E-03
RMM:  25    -0.500010422357E+03   -0.35510E-04   -0.26225E-07  1229   0.752E-04    0.388E-03
RMM:  26    -0.500010443998E+03   -0.21641E-04   -0.16483E-07  1164   0.684E-04    0.350E-03
RMM:  27    -0.500010487735E+03   -0.43737E-04   -0.44057E-07  1283   0.759E-04    0.316E-03
RMM:  28    -0.500010512440E+03   -0.24706E-04   -0.27178E-07  1193   0.748E-04    0.299E-03
RMM:  29    -0.500010538424E+03   -0.25984E-04   -0.34416E-07  1232   0.708E-04    0.262E-03
RMM:  30    -0.500010550226E+03   -0.11802E-04   -0.17080E-07  1124   0.608E-04    0.181E-03
RMM:  31    -0.500010560818E+03   -0.10592E-04   -0.18959E-07  1121   0.525E-04    0.200E-03
RMM:  32    -0.500010563794E+03   -0.29763E-05   -0.11064E-07  1066   0.485E-04    0.103E-03
RMM:  33    -0.500010563413E+03    0.38103E-06   -0.67549E-08   902   0.371E-04
   9 F= -.53495723E+03 E0= -.53496675E+03  d E =-.947548E-01  mag=    92.6095
       N       E                     dE             d eps       ncg     rms          rms(c)
DAV:   1    -0.499964413577E+03    0.46150E-01   -0.26293E+01  2096   0.627E+00    0.201E+00
RMM:   2    -0.500102064408E+03   -0.13765E+00   -0.44734E-01  2100   0.159E+00    0.456E+00
RMM:   3    -0.500192566741E+03   -0.90502E-01   -0.18816E-01  2184   0.857E-01    0.642E+00
RMM:   4    -0.500137448297E+03    0.55118E-01   -0.76472E-02  2101   0.553E-01    0.472E+00
RMM:   5    -0.500051016308E+03    0.86432E-01   -0.35701E-02  2101   0.396E-01    0.155E+00
RMM:   6    -0.500044792049E+03    0.62243E-02   -0.10122E-02  2100   0.209E-01    0.805E-01
RMM:   7    -0.500043689453E+03    0.11026E-02   -0.39307E-03  2101   0.127E-01    0.712E-01
RMM:   8    -0.500042305450E+03    0.13840E-02   -0.23845E-03  2102   0.101E-01    0.496E-01
RMM:   9    -0.500042294158E+03    0.11292E-04   -0.21401E-03  2102   0.935E-02    0.566E-01
RMM:  10    -0.500042009429E+03    0.28473E-03   -0.25327E-03  2102   0.991E-02    0.497E-01
RMM:  11    -0.500041396959E+03    0.61247E-03   -0.20560E-03  2103   0.894E-02    0.406E-01
RMM:  12    -0.500040994210E+03    0.40275E-03   -0.90098E-04  2102   0.600E-02    0.241E-01
RMM:  13    -0.500041057464E+03   -0.63254E-04   -0.34069E-04  2100   0.365E-02    0.213E-01
RMM:  14    -0.500040997241E+03    0.60223E-04   -0.15536E-04  2100   0.257E-02    0.109E-01
RMM:  15    -0.500041049592E+03   -0.52351E-04   -0.67008E-05  2098   0.168E-02    0.991E-02
RMM:  16    -0.500041065087E+03   -0.15495E-04   -0.31282E-05  2096   0.114E-02    0.440E-02
RMM:  17    -0.500041105594E+03   -0.40507E-04   -0.16111E-05  2092   0.813E-03    0.427E-02
RMM:  18    -0.500041206338E+03   -0.10074E-03   -0.15369E-05  2096   0.721E-03    0.388E-02
RMM:  19    -0.500041242132E+03   -0.35794E-04   -0.75236E-06  1896   0.552E-03    0.238E-02
RMM:  20    -0.500041329835E+03   -0.87703E-04   -0.58158E-06  1909   0.472E-03    0.293E-02
RMM:  21    -0.500041374146E+03   -0.44312E-04   -0.30606E-06  1549   0.389E-03    0.133E-02
RMM:  22    -0.500041431908E+03   -0.57762E-04   -0.17779E-06  1272   0.294E-03    0.172E-02
RMM:  23    -0.500041478538E+03   -0.46629E-04   -0.12335E-06  1200   0.268E-03    0.951E-03
RMM:  24    -0.500041537906E+03   -0.59368E-04   -0.80416E-07  1219   0.193E-03    0.123E-02
RMM:  25    -0.500041618584E+03   -0.80679E-04   -0.80852E-07  1257   0.193E-03    0.789E-03
RMM:  26    -0.500041681396E+03   -0.62812E-04   -0.72611E-07  1230   0.167E-03    0.961E-03
RMM:  27    -0.500041818197E+03   -0.13680E-03   -0.15116E-06  1368   0.189E-03    0.675E-03
RMM:  28    -0.500041879002E+03   -0.60804E-04   -0.86442E-07  1300   0.172E-03    0.798E-03
RMM:  29    -0.500041942668E+03   -0.63666E-04   -0.92991E-07  1342   0.155E-03    0.567E-03
RMM:  30    -0.500041965074E+03   -0.22406E-04   -0.38839E-07  1226   0.119E-03    0.345E-03
RMM:  31    -0.500041985494E+03   -0.20419E-04   -0.30995E-07  1240   0.882E-04    0.409E-03
RMM:  32    -0.500041992644E+03   -0.71504E-05   -0.14773E-07  1179   0.773E-04    0.208E-03
RMM:  33    -0.500041997884E+03   -0.52399E-05   -0.90168E-08  1086   0.523E-04    0.245E-03
RMM:  34    -0.500042000681E+03   -0.27968E-05   -0.59079E-08  1074   0.487E-04    0.998E-04
RMM:  35    -0.500042001832E+03   -0.11519E-05   -0.29696E-08   793   0.332E-04    0.136E-03
RMM:  36    -0.500042002154E+03   -0.32126E-06   -0.18549E-08   672   0.295E-04
  10 F= -.53500129E+03 E0= -.53501030E+03  d E =-.440568E-01  mag=    92.6795
       N       E                     dE             d eps       ncg     rms          rms(c)
DAV:   1    -0.500009335229E+03    0.32667E-01   -0.10965E+01  2104   0.404E+00    0.129E+00
RMM:   2    -0.500063579528E+03   -0.54244E-01   -0.17832E-01  2100   0.997E-01    0.278E+00
RMM:   3    -0.500104467314E+03   -0.40888E-01   -0.78148E-02  2182   0.556E-01    0.417E+00
RMM:   4    -0.500080193202E+03    0.24274E-01   -0.31896E-02  2102   0.359E-01    0.302E+00
RMM:   5    -0.500044864493E+03    0.35329E-01   -0.14343E-02  2101   0.252E-01    0.966E-01
RMM:   6    -0.500042304567E+03    0.25599E-02   -0.37932E-03  2100   0.128E-01    0.454E-01
RMM:   7    -0.500041965592E+03    0.33898E-03   -0.13836E-03  2100   0.751E-02    0.435E-01
RMM:   8    -0.500041374103E+03    0.59149E-03   -0.93409E-04  2103   0.623E-02    0.304E-01
RMM:   9    -0.500041382374E+03   -0.82715E-05   -0.92965E-04  2101   0.612E-02    0.361E-01
RMM:  10    -0.500041270692E+03    0.11168E-03   -0.11065E-03  2104   0.649E-02    0.318E-01
RMM:  11    -0.500041034834E+03    0.23586E-03   -0.80763E-04  2102   0.563E-02    0.260E-01
RMM:  12    -0.500040825519E+03    0.20931E-03   -0.31435E-04  2101   0.356E-02    0.127E-01
RMM:  13    -0.500040847162E+03   -0.21642E-04   -0.97610E-05  2100   0.196E-02    0.107E-01
RMM:  14    -0.500040848316E+03   -0.11546E-05   -0.41778E-05  2097   0.132E-02    0.552E-02
RMM:  15    -0.500040877547E+03   -0.29230E-04   -0.18227E-05  2095   0.878E-03    0.498E-02
RMM:  16    -0.500040902034E+03   -0.24488E-04   -0.10350E-05  2085   0.629E-03    0.266E-02
RMM:  17    -0.500040926423E+03   -0.24389E-04   -0.58050E-06  1813   0.488E-03    0.237E-02
RMM:  18    -0.500040994628E+03   -0.68205E-04   -0.72143E-06  2082   0.495E-03    0.273E-02
RMM:  19    -0.500041019851E+03   -0.25223E-04   -0.32604E-06  1583   0.376E-03    0.141E-02
RMM:  20    -0.500041057986E+03   -0.38135E-04   -0.18608E-06  1255   0.304E-03    0.168E-02
RMM:  21    -0.500041082011E+03   -0.24025E-04   -0.12049E-06  1185   0.270E-03    0.793E-03
RMM:  22    -0.500041110693E+03   -0.28682E-04   -0.58375E-07  1190   0.169E-03    0.101E-02
RMM:  23    -0.500041140886E+03   -0.30193E-04   -0.45119E-07  1190   0.156E-03    0.641E-03
RMM:  24    -0.500041174339E+03   -0.33453E-04   -0.35735E-07  1195   0.125E-03    0.783E-03
RMM:  25    -0.500041230302E+03   -0.55963E-04   -0.45328E-07  1231   0.127E-03    0.566E-03
RMM:  26    -0.500041266315E+03   -0.36013E-04   -0.39519E-07  1208   0.122E-03    0.619E-03
RMM:  27    -0.500041332423E+03   -0.66108E-04   -0.71236E-07  1326   0.126E-03    0.512E-03
RMM:  28    -0.500041360411E+03   -0.27988E-04   -0.38614E-07  1228   0.116E-03    0.492E-03
RMM:  29    -0.500041385993E+03   -0.25582E-04   -0.34129E-07  1247   0.957E-04    0.334E-03
RMM:  30    -0.500041396430E+03   -0.10437E-04   -0.15873E-07  1155   0.746E-04    0.226E-03
RMM:  31    -0.500041404736E+03   -0.83060E-05   -0.11939E-07  1152   0.575E-04    0.251E-03
RMM:  32    -0.500041408058E+03   -0.33227E-05   -0.60835E-08  1063   0.493E-04    0.130E-03
RMM:  33    -0.500041410525E+03   -0.24661E-05   -0.37450E-08   876   0.356E-04    0.133E-03
RMM:  34    -0.500041411535E+03   -0.10099E-05   -0.26209E-08   797   0.330E-04    0.599E-04
RMM:  35    -0.500041411800E+03   -0.26516E-06   -0.97977E-09   513   0.265E-04
  11 F= -.53500930E+03 E0= -.53501794E+03  d E =-.520685E-01  mag=    92.7269
       N       E                     dE             d eps       ncg     rms          rms(c)
DAV:   1    -0.499967128707E+03    0.74283E-01   -0.29478E+01  2096   0.665E+00    0.223E+00
RMM:   2    -0.500140684048E+03   -0.17356E+00   -0.49210E-01  2100   0.164E+00    0.531E+00
RMM:   3    -0.500249369434E+03   -0.10869E+00   -0.21198E-01  2161   0.910E-01    0.710E+00
RMM:   4    -0.500178996790E+03    0.70373E-01   -0.89906E-02  2102   0.601E-01    0.544E+00
RMM:   5    -0.500066596347E+03    0.11240E+00   -0.45910E-02  2100   0.452E-01    0.148E+00
RMM:   6    -0.500061497627E+03    0.50987E-02   -0.10809E-02  2100   0.216E-01    0.841E-01
RMM:   7    -0.500060065174E+03    0.14325E-02   -0.38987E-03  2101   0.128E-01    0.717E-01
RMM:   8    -0.500058511147E+03    0.15540E-02   -0.21628E-03  2103   0.979E-02    0.459E-01
RMM:   9    -0.500058780978E+03   -0.26983E-03   -0.24391E-03  2101   0.987E-02    0.620E-01
RMM:  10    -0.500057991286E+03    0.78969E-03   -0.26193E-03  2101   0.100E-01    0.456E-01
RMM:  11    -0.500057341265E+03    0.65002E-03   -0.19266E-03  2105   0.853E-02    0.353E-01
RMM:  12    -0.500057151784E+03    0.18948E-03   -0.91399E-04  2101   0.595E-02    0.243E-01
RMM:  13    -0.500057223259E+03   -0.71475E-04   -0.34422E-04  2101   0.367E-02    0.198E-01
RMM:  14    -0.500057230085E+03   -0.68259E-05   -0.15811E-04  2100   0.257E-02    0.125E-01
RMM:  15    -0.500057301556E+03   -0.71471E-04   -0.71974E-05  2097   0.170E-02    0.948E-02
RMM:  16    -0.500057339227E+03   -0.37671E-04   -0.32454E-05  2097   0.118E-02    0.445E-02
RMM:  17    -0.500057422940E+03   -0.83713E-04   -0.18483E-05  2095   0.863E-03    0.536E-02
RMM:  18    -0.500057550288E+03   -0.12735E-03   -0.14843E-05  2096   0.737E-03    0.312E-02
RMM:  19    -0.500057621984E+03   -0.71696E-04   -0.78752E-06  1917   0.570E-03    0.299E-02
RMM:  20    -0.500057755441E+03   -0.13346E-03   -0.67372E-06  1943   0.515E-03    0.286E-02
RMM:  21    -0.500057827281E+03   -0.71840E-04   -0.33847E-06  1615   0.402E-03    0.143E-02
RMM:  22    -0.500057926679E+03   -0.99398E-04   -0.20474E-06  1344   0.307E-03    0.179E-02
RMM:  23    -0.500057988477E+03   -0.61798E-04   -0.14105E-06  1224   0.284E-03    0.105E-02
RMM:  24    -0.500058077693E+03   -0.89215E-04   -0.91101E-07  1251   0.197E-03    0.123E-02
RMM:  25    -0.500058181350E+03   -0.10366E-03   -0.92186E-07  1289   0.205E-03    0.764E-03
RMM:  26    -0.500058295252E+03   -0.11390E-03   -0.10740E-06  1331   0.184E-03    0.119E-02
RMM:  27    -0.500058453854E+03   -0.15860E-03   -0.16904E-06  1383   0.213E-03    0.795E-03
RMM:  28    -0.500058547260E+03   -0.93406E-04   -0.11158E-06  1331   0.177E-03    0.942E-03
RMM:  29    -0.500058640405E+03   -0.93145E-04   -0.12468E-06  1365   0.172E-03    0.504E-03
RMM:  30    -0.500058679629E+03   -0.39224E-04   -0.56349E-07  1264   0.129E-03    0.489E-03
RMM:  31    -0.500058707720E+03   -0.28090E-04   -0.40011E-07  1248   0.103E-03    0.308E-03
RMM:  32    -0.500058719526E+03   -0.11806E-04   -0.18913E-07  1178   0.778E-04    0.285E-03
RMM:  33    -0.500058730463E+03   -0.10937E-04   -0.15919E-07  1179   0.643E-04    0.187E-03
RMM:  34    -0.500058734059E+03   -0.35955E-05   -0.64963E-08  1039   0.489E-04    0.142E-03
RMM:  35    -0.500058736519E+03   -0.24601E-05   -0.36728E-08   852   0.367E-04    0.115E-03
RMM:  36    -0.500058737350E+03   -0.83142E-06   -0.16166E-08   689   0.314E-04
  12 F= -.53504481E+03 E0= -.53505277E+03  d E =-.355073E-01  mag=    92.7877
       N       E                     dE             d eps       ncg     rms          rms(c)
DAV:   1    -0.500008386124E+03    0.50350E-01   -0.14477E+01  2104   0.466E+00    0.155E+00
RMM:   2    -0.500087510061E+03   -0.79124E-01   -0.22963E-01  2100   0.111E+00    0.344E+00
RMM:   3    -0.500151169849E+03   -0.63660E-01   -0.10288E-01  2153   0.636E-01    0.507E+00
RMM:   4    -0.500107974804E+03    0.43195E-01   -0.43787E-02  2102   0.423E-01    0.370E+00
RMM:   5    -0.500056294667E+03    0.51680E-01   -0.21401E-02  2100   0.310E-01    0.957E-01
RMM:   6    -0.500054013841E+03    0.22808E-02   -0.45769E-03  2100   0.141E-01    0.498E-01
RMM:   7    -0.500053578616E+03    0.43523E-03   -0.16288E-03  2101   0.826E-02    0.497E-01
RMM:   8    -0.500052722383E+03    0.85623E-03   -0.10324E-03  2103   0.668E-02    0.303E-01
RMM:   9    -0.500052851087E+03   -0.12870E-03   -0.12427E-03  2101   0.701E-02    0.427E-01
RMM:  10    -0.500052473077E+03    0.37801E-03   -0.13624E-03  2103   0.712E-02    0.315E-01
RMM:  11    -0.500052179782E+03    0.29330E-03   -0.84579E-04  2102   0.570E-02    0.244E-01
RMM:  12    -0.500052043347E+03    0.13643E-03   -0.34982E-04  2102   0.368E-02    0.136E-01
RMM:  13    -0.500052091186E+03   -0.47839E-04   -0.11473E-04  2100   0.213E-02    0.118E-01
RMM:  14    -0.500052109117E+03   -0.17932E-04   -0.48340E-05  2096   0.143E-02    0.616E-02
RMM:  15    -0.500052155963E+03   -0.46845E-04   -0.22367E-05  2096   0.960E-03    0.524E-02
RMM:  16    -0.500052192632E+03   -0.36670E-04   -0.11531E-05  2079   0.681E-03    0.268E-02
RMM:  17    -0.500052243501E+03   -0.50869E-04   -0.75349E-06  1924   0.550E-03    0.317E-02
RMM:  18    -0.500052344606E+03   -0.10110E-03   -0.80688E-06  2084   0.529E-03    0.229E-02
RMM:  19    -0.500052391950E+03   -0.47345E-04   -0.36220E-06  1635   0.394E-03    0.177E-02
RMM:  20    -0.500052461084E+03   -0.69133E-04   -0.25410E-06  1415   0.352E-03    0.179E-02
RMM:  21    -0.500052497884E+03   -0.36800E-04   -0.13560E-06  1206   0.279E-03    0.870E-03
RMM:  22    -0.500052552749E+03   -0.54864E-04   -0.76304E-07  1212   0.187E-03    0.113E-02
RMM:  23    -0.500052592913E+03   -0.40164E-04   -0.56063E-07  1191   0.176E-03    0.737E-03
RMM:  24    -0.500052647908E+03   -0.54996E-04   -0.45897E-07  1219   0.133E-03    0.867E-03
RMM:  25    -0.500052730530E+03   -0.82622E-04   -0.61231E-07  1268   0.147E-03    0.534E-03
RMM:  26    -0.500052806838E+03   -0.76307E-04   -0.71433E-07  1296   0.143E-03    0.851E-03
RMM:  27    -0.500052902940E+03   -0.96102E-04   -0.10825E-06  1354   0.161E-03    0.521E-03
RMM:  28    -0.500052947061E+03   -0.44122E-04   -0.55137E-07  1259   0.124E-03    0.577E-03
RMM:  29    -0.500052987323E+03   -0.40262E-04   -0.51818E-07  1295   0.112E-03    0.325E-03
RMM:  30    -0.500053002303E+03   -0.14980E-04   -0.21317E-07  1200   0.816E-04    0.277E-03
RMM:  31    -0.500053015056E+03   -0.12754E-04   -0.16604E-07  1169   0.648E-04    0.205E-03
RMM:  32    -0.500053019695E+03   -0.46391E-05   -0.73215E-08  1087   0.516E-04    0.162E-03
RMM:  33    -0.500053024305E+03   -0.46091E-05   -0.58327E-08   958   0.414E-04    0.137E-03
RMM:  34    -0.500053025903E+03   -0.15982E-05   -0.27205E-08   842   0.351E-04    0.813E-04
RMM:  35    -0.500053026849E+03   -0.94674E-06   -0.11778E-08   534   0.278E-04
  13 F= -.53505227E+03 E0= -.53505980E+03  d E =-.429710E-01  mag=    92.8331
       N       E                     dE             d eps       ncg     rms          rms(c)
DAV:   1    -0.499993838061E+03    0.59188E-01   -0.20117E+01  2096   0.550E+00    0.188E+00
RMM:   2    -0.500101458050E+03   -0.10762E+00   -0.31623E-01  2101   0.130E+00    0.407E+00
RMM:   3    -0.500197765709E+03   -0.96308E-01   -0.15539E-01  2142   0.781E-01    0.617E+00
RMM:   4    -0.500142359321E+03    0.55406E-01   -0.60927E-02  2100   0.500E-01    0.448E+00
RMM:   5    -0.500062128124E+03    0.80231E-01   -0.28867E-02  2100   0.357E-01    0.112E+00
RMM:   6    -0.500058827958E+03    0.33002E-02   -0.70161E-03  2100   0.174E-01    0.597E-01
RMM:   7    -0.500058349154E+03    0.47880E-03   -0.25496E-03  2101   0.104E-01    0.621E-01
RMM:   8    -0.500056956742E+03    0.13924E-02   -0.14388E-03  2100   0.797E-02    0.326E-01
RMM:   9    -0.500057200843E+03   -0.24410E-03   -0.16364E-03  2101   0.796E-02    0.511E-01
RMM:  10    -0.500056612041E+03    0.58880E-03   -0.17069E-03  2104   0.801E-02    0.375E-01
RMM:  11    -0.500056127098E+03    0.48494E-03   -0.11280E-03  2103   0.657E-02    0.250E-01
RMM:  12    -0.500056039116E+03    0.87982E-04   -0.43990E-04  2102   0.412E-02    0.172E-01
RMM:  13    -0.500056074959E+03   -0.35843E-04   -0.16872E-04  2101   0.262E-02    0.138E-01
RMM:  14    -0.500056106468E+03   -0.31509E-04   -0.69662E-05  2099   0.172E-02    0.793E-02
RMM:  15    -0.500056159783E+03   -0.53315E-04   -0.31693E-05  2096   0.115E-02    0.610E-02
RMM:  16    -0.500056210427E+03   -0.50644E-04   -0.15802E-05  2095   0.799E-03    0.290E-02
RMM:  17    -0.500056277732E+03   -0.67305E-04   -0.93388E-06  2013   0.617E-03    0.354E-02
RMM:  18    -0.500056398762E+03   -0.12103E-03   -0.90474E-06  2084   0.573E-03    0.275E-02
RMM:  19    -0.500056461669E+03   -0.62907E-04   -0.42944E-06  1695   0.425E-03    0.174E-02
RMM:  20    -0.500056577186E+03   -0.11552E-03   -0.32882E-06  1572   0.377E-03    0.197E-02
RMM:  21    -0.500056640110E+03   -0.62924E-04   -0.18435E-06  1267   0.318E-03    0.957E-03
RMM:  22    -0.500056722224E+03   -0.82113E-04   -0.11001E-06  1255   0.215E-03    0.130E-02
RMM:  23    -0.500056785295E+03   -0.63071E-04   -0.75357E-07  1206   0.198E-03    0.737E-03
RMM:  24    -0.500056870664E+03   -0.85369E-04   -0.57803E-07  1239   0.137E-03    0.960E-03
RMM:  25    -0.500056969327E+03   -0.98663E-04   -0.63634E-07  1270   0.146E-03    0.620E-03
RMM:  26    -0.500057085088E+03   -0.11576E-03   -0.84398E-07  1319   0.138E-03    0.808E-03
RMM:  27    -0.500057263622E+03   -0.17853E-03   -0.18819E-06  1396   0.167E-03    0.565E-03
RMM:  28    -0.500057340970E+03   -0.77348E-04   -0.81582E-07  1308   0.134E-03    0.556E-03
RMM:  29    -0.500057437174E+03   -0.96204E-04   -0.12351E-06  1367   0.128E-03    0.448E-03
RMM:  30    -0.500057467137E+03   -0.29964E-04   -0.37784E-07  1245   0.977E-04    0.287E-03
RMM:  31    -0.500057497261E+03   -0.30123E-04   -0.38709E-07  1260   0.761E-04    0.260E-03
RMM:  32    -0.500057508101E+03   -0.10840E-04   -0.15325E-07  1130   0.667E-04    0.152E-03
RMM:  33    -0.500057518595E+03   -0.10494E-04   -0.17537E-07  1106   0.523E-04    0.176E-03
RMM:  34    -0.500057520085E+03   -0.14903E-05   -0.63595E-08   987   0.446E-04    0.913E-04
RMM:  35    -0.500057520756E+03   -0.67119E-06   -0.40857E-08   710   0.318E-04
  14 F= -.53507402E+03 E0= -.53508115E+03  d E =-.217454E-01  mag=    92.8553
       N       E                     dE             d eps       ncg     rms          rms(c)
DAV:   1    -0.500028566173E+03    0.28954E-01   -0.70810E+00  2128   0.326E+00    0.110E+00
RMM:   2    -0.500064444904E+03   -0.35879E-01   -0.10674E-01  2101   0.753E-01    0.229E+00
RMM:   3    -0.500100399187E+03   -0.35954E-01   -0.54367E-02  2140   0.463E-01    0.368E+00
RMM:   4    -0.500078819900E+03    0.21579E-01   -0.21216E-02  2101   0.297E-01    0.258E+00
RMM:   5    -0.500052144927E+03    0.26675E-01   -0.94624E-03  2100   0.205E-01    0.622E-01
RMM:   6    -0.500051098415E+03    0.10465E-02   -0.21389E-03  2101   0.962E-02    0.294E-01
RMM:   7    -0.500051014737E+03    0.83678E-04   -0.76523E-04  2100   0.563E-02    0.366E-01
RMM:   8    -0.500050461159E+03    0.55358E-03   -0.50399E-04  2102   0.463E-02    0.180E-01
RMM:   9    -0.500050556690E+03   -0.95531E-04   -0.59859E-04  2100   0.481E-02    0.306E-01
RMM:  10    -0.500050303665E+03    0.25303E-03   -0.61483E-04  2104   0.473E-02    0.212E-01
RMM:  11    -0.500050140771E+03    0.16289E-03   -0.33717E-04  2101   0.363E-02    0.143E-01
RMM:  12    -0.500050098812E+03    0.41959E-04   -0.11621E-04  2102   0.212E-02    0.818E-02
RMM:  13    -0.500050111973E+03   -0.13161E-04   -0.37496E-05  2096   0.124E-02    0.574E-02
RMM:  14    -0.500050139099E+03   -0.27126E-04   -0.13542E-05  2069   0.751E-03    0.348E-02
RMM:  15    -0.500050168918E+03   -0.29819E-04   -0.69392E-06  1890   0.544E-03    0.260E-02
RMM:  16    -0.500050201456E+03   -0.32538E-04   -0.43311E-06  1705   0.427E-03    0.160E-02
RMM:  17    -0.500050241228E+03   -0.39772E-04   -0.33457E-06  1544   0.385E-03    0.194E-02
RMM:  18    -0.500050310517E+03   -0.69289E-04   -0.38072E-06  1652   0.397E-03    0.161E-02
RMM:  19    -0.500050342889E+03   -0.32372E-04   -0.17265E-06  1221   0.298E-03    0.931E-03
RMM:  20    -0.500050385395E+03   -0.42506E-04   -0.10112E-06  1208   0.225E-03    0.101E-02
RMM:  21    -0.500050412233E+03   -0.26838E-04   -0.54416E-07  1188   0.177E-03    0.544E-03
RMM:  22    -0.500050446043E+03   -0.33810E-04   -0.30538E-07  1192   0.111E-03    0.684E-03
RMM:  23    -0.500050479144E+03   -0.33101E-04   -0.23697E-07  1188   0.103E-03    0.444E-03
RMM:  24    -0.500050530175E+03   -0.51030E-04   -0.29410E-07  1228   0.851E-04    0.592E-03
RMM:  25    -0.500050590869E+03   -0.60695E-04   -0.38736E-07  1244   0.984E-04    0.375E-03
RMM:  26    -0.500050654442E+03   -0.63572E-04   -0.48127E-07  1282   0.938E-04    0.460E-03
RMM:  27    -0.500050724629E+03   -0.70187E-04   -0.69860E-07  1327   0.105E-03    0.286E-03
RMM:  28    -0.500050759586E+03   -0.34957E-04   -0.35892E-07  1228   0.817E-04    0.308E-03
RMM:  29    -0.500050786775E+03   -0.27189E-04   -0.29165E-07  1197   0.736E-04    0.199E-03
RMM:  30    -0.500050798870E+03   -0.12095E-04   -0.12839E-07  1082   0.539E-04    0.216E-03
RMM:  31    -0.500050811318E+03   -0.12448E-04   -0.14554E-07  1092   0.504E-04    0.133E-03
RMM:  32    -0.500050815197E+03   -0.38795E-05   -0.53202E-08   949   0.404E-04    0.108E-03
RMM:  33    -0.500050818602E+03   -0.34051E-05   -0.61277E-08   853   0.350E-04    0.811E-04
RMM:  34    -0.500050818925E+03   -0.32248E-06   -0.24126E-08   641   0.301E-04
  15 F= -.53507778E+03 E0= -.53508468E+03  d E =-.255081E-01  mag=    92.8691
       N       E                     dE             d eps       ncg     rms          rms(c)
DAV:   1    -0.499997994154E+03    0.52824E-01   -0.15763E+01  2096   0.476E+00    0.154E+00
RMM:   2    -0.500066660678E+03   -0.68667E-01   -0.24801E-01  2100   0.116E+00    0.282E+00
RMM:   3    -0.500166400306E+03   -0.99740E-01   -0.11047E-01  2191   0.650E-01    0.560E+00
RMM:   4    -0.500091926325E+03    0.74474E-01   -0.42838E-02  2101   0.418E-01    0.333E+00
RMM:   5    -0.500049290905E+03    0.42635E-01   -0.17271E-02  2101   0.274E-01    0.702E-01
RMM:   6    -0.500048511330E+03    0.77958E-03   -0.36993E-03  2101   0.122E-01    0.552E-01
RMM:   7    -0.500047299274E+03    0.12121E-02   -0.13418E-03  2103   0.743E-02    0.376E-01
RMM:   8    -0.500046826360E+03    0.47291E-03   -0.83955E-04  2102   0.599E-02    0.285E-01
RMM:   9    -0.500047074391E+03   -0.24803E-03   -0.15483E-03  2101   0.750E-02    0.503E-01
RMM:  10    -0.500046245864E+03    0.82853E-03   -0.14893E-03  2118   0.741E-02    0.286E-01
RMM:  11    -0.500045991100E+03    0.25476E-03   -0.68403E-04  2101   0.510E-02    0.187E-01
RMM:  12    -0.500045946753E+03    0.44347E-04   -0.24056E-04  2101   0.303E-02    0.129E-01
RMM:  13    -0.500045958719E+03   -0.11966E-04   -0.88101E-05  2102   0.192E-02    0.962E-02
RMM:  14    -0.500045978975E+03   -0.20256E-04   -0.35190E-05  2096   0.123E-02    0.518E-02
RMM:  15    -0.500046016866E+03   -0.37892E-04   -0.17680E-05  2096   0.836E-03    0.479E-02
RMM:  16    -0.500046045280E+03   -0.28414E-04   -0.10203E-05  2083   0.644E-03    0.217E-02
RMM:  17    -0.500046113737E+03   -0.68456E-04   -0.87239E-06  2071   0.567E-03    0.350E-02
RMM:  18    -0.500046182199E+03   -0.68463E-04   -0.68908E-06  2002   0.501E-03    0.205E-02
RMM:  19    -0.500046234759E+03   -0.52560E-04   -0.31183E-06  1562   0.370E-03    0.178E-02
RMM:  20    -0.500046321069E+03   -0.86310E-04   -0.22119E-06  1327   0.328E-03    0.113E-02
RMM:  21    -0.500046364938E+03   -0.43869E-04   -0.11135E-06  1210   0.240E-03    0.967E-03
RMM:  22    -0.500046441828E+03   -0.76890E-04   -0.82486E-07  1252   0.183E-03    0.822E-03
RMM:  23    -0.500046491447E+03   -0.49619E-04   -0.45863E-07  1203   0.144E-03    0.759E-03
RMM:  24    -0.500046586290E+03   -0.94844E-04   -0.59099E-07  1275   0.120E-03    0.702E-03
RMM:  25    -0.500046667949E+03   -0.81659E-04   -0.56427E-07  1251   0.127E-03    0.656E-03
RMM:  26    -0.500046840301E+03   -0.17235E-03   -0.18457E-06  1393   0.152E-03    0.762E-03
RMM:  27    -0.500046953273E+03   -0.11297E-03   -0.13549E-06  1357   0.158E-03    0.517E-03
RMM:  28    -0.500047045822E+03   -0.92549E-04   -0.12367E-06  1361   0.133E-03    0.591E-03
RMM:  29    -0.500047107200E+03   -0.61377E-04   -0.92870E-07  1333   0.122E-03    0.303E-03
RMM:  30    -0.500047139151E+03   -0.31951E-04   -0.52852E-07  1290   0.915E-04    0.330E-03
RMM:  31    -0.500047155710E+03   -0.16559E-04   -0.34544E-07  1243   0.836E-04    0.178E-03
RMM:  32    -0.500047161766E+03   -0.60566E-05   -0.34530E-07  1242   0.669E-04    0.258E-03
RMM:  33    -0.500047157750E+03    0.40158E-05   -0.14487E-07  1126   0.624E-04    0.134E-03
RMM:  34    -0.500047154612E+03    0.31382E-05   -0.58973E-08   919   0.398E-04    0.137E-03
RMM:  35    -0.500047152756E+03    0.18565E-05   -0.20539E-08   742   0.322E-04    0.761E-04
RMM:  36    -0.500047152503E+03    0.25245E-06   -0.43923E-09   499   0.261E-04
  16 F= -.53509197E+03 E0= -.53509901E+03  d E =-.141947E-01  mag=    92.8651
       N       E                     dE             d eps       ncg     rms          rms(c)
DAV:   1    -0.500024810472E+03    0.22342E-01   -0.47142E+00  2136   0.260E+00    0.837E-01
RMM:   2    -0.500044670569E+03   -0.19860E-01   -0.72445E-02  2100   0.622E-01    0.149E+00
RMM:   3    -0.500074344875E+03   -0.29674E-01   -0.33049E-02  2190   0.357E-01    0.303E+00
RMM:   4    -0.500052439125E+03    0.21906E-01   -0.12677E-02  2103   0.229E-01    0.179E+00
RMM:   5    -0.500039929070E+03    0.12510E-01   -0.48644E-03  2101   0.146E-01    0.342E-01
RMM:   6    -0.500039745025E+03    0.18404E-03   -0.92235E-04  2103   0.603E-02    0.250E-01
RMM:   7    -0.500039462558E+03    0.28247E-03   -0.33487E-04  2099   0.364E-02    0.201E-01
RMM:   8    -0.500039298920E+03    0.16364E-03   -0.26066E-04  2103   0.328E-02    0.156E-01
RMM:   9    -0.500039398604E+03   -0.99683E-04   -0.51245E-04  2101   0.434E-02    0.306E-01
RMM:  10    -0.500039028083E+03    0.37052E-03   -0.46557E-04  2119   0.410E-02    0.134E-01
RMM:  11    -0.500038973995E+03    0.54088E-04   -0.14674E-04  2101   0.240E-02    0.885E-02
RMM:  12    -0.500038962699E+03    0.11296E-04   -0.47036E-05  2099   0.132E-02    0.555E-02
RMM:  13    -0.500038964882E+03   -0.21838E-05   -0.15046E-05  2066   0.804E-03    0.329E-02
RMM:  14    -0.500038980673E+03   -0.15791E-04   -0.58159E-06  1846   0.495E-03    0.238E-02
RMM:  15    -0.500038993168E+03   -0.12495E-04   -0.35620E-06  1602   0.408E-03    0.177E-02
RMM:  16    -0.500039012991E+03   -0.19822E-04   -0.31061E-06  1426   0.368E-03    0.144E-02
RMM:  17    -0.500039042397E+03   -0.29407E-04   -0.31521E-06  1485   0.376E-03    0.165E-02
RMM:  18    -0.500039071152E+03   -0.28755E-04   -0.22150E-06  1244   0.326E-03    0.106E-02
RMM:  19    -0.500039092955E+03   -0.21803E-04   -0.12001E-06  1191   0.251E-03    0.834E-03
RMM:  20    -0.500039120380E+03   -0.27425E-04   -0.63035E-07  1198   0.181E-03    0.640E-03
RMM:  21    -0.500039135494E+03   -0.15114E-04   -0.28705E-07  1175   0.123E-03    0.455E-03
RMM:  22    -0.500039166306E+03   -0.30812E-04   -0.22181E-07  1198   0.888E-04    0.500E-03
RMM:  23    -0.500039188431E+03   -0.22125E-04   -0.14777E-07  1183   0.776E-04    0.402E-03
RMM:  24    -0.500039231195E+03   -0.42764E-04   -0.25957E-07  1226   0.740E-04    0.490E-03
RMM:  25    -0.500039280677E+03   -0.49482E-04   -0.34927E-07  1243   0.840E-04    0.314E-03
RMM:  26    -0.500039325480E+03   -0.44803E-04   -0.35718E-07  1237   0.796E-04    0.401E-03
RMM:  27    -0.500039384156E+03   -0.58676E-04   -0.66153E-07  1317   0.897E-04    0.220E-03
RMM:  28    -0.500039407872E+03   -0.23716E-04   -0.25613E-07  1142   0.679E-04    0.264E-03
RMM:  29    -0.500039435326E+03   -0.27454E-04   -0.38179E-07  1229   0.679E-04    0.155E-03
RMM:  30    -0.500039444062E+03   -0.87363E-05   -0.13197E-07  1075   0.519E-04    0.161E-03
RMM:  31    -0.500039451105E+03   -0.70430E-05   -0.16003E-07  1036   0.470E-04    0.116E-03
RMM:  32    -0.500039451044E+03    0.61831E-07   -0.62922E-08   911   0.392E-04
  17 F= -.53509415E+03 E0= -.53510125E+03  d E =-.163694E-01  mag=    92.8637
       N       E                     dE             d eps       ncg     rms          rms(c)
DAV:   1    -0.499975708019E+03    0.63743E-01   -0.18924E+01  2096   0.522E+00    0.167E+00
RMM:   2    -0.500065242352E+03   -0.89534E-01   -0.29809E-01  2100   0.126E+00    0.316E+00
RMM:   3    -0.500187630638E+03   -0.12239E+00   -0.12195E-01  2209   0.677E-01    0.613E+00
RMM:   4    -0.500078728212E+03    0.10890E+00   -0.55216E-02  2101   0.474E-01    0.340E+00
RMM:   5    -0.500037215005E+03    0.41513E-01   -0.23775E-02  2101   0.326E-01    0.936E-01
RMM:   6    -0.500035356625E+03    0.18584E-02   -0.44801E-03  2101   0.134E-01    0.579E-01
RMM:   7    -0.500034287131E+03    0.10695E-02   -0.16795E-03  2100   0.836E-02    0.485E-01
RMM:   8    -0.500033416273E+03    0.87086E-03   -0.10011E-03  2101   0.660E-02    0.270E-01
RMM:   9    -0.500034015210E+03   -0.59894E-03   -0.17495E-03  2100   0.804E-02    0.596E-01
RMM:  10    -0.500032846350E+03    0.11689E-02   -0.17685E-03  2106   0.800E-02    0.289E-01
RMM:  11    -0.500032738096E+03    0.10825E-03   -0.76042E-04  2102   0.545E-02    0.219E-01
RMM:  12    -0.500032704096E+03    0.34000E-04   -0.31111E-04  2104   0.332E-02    0.148E-01
RMM:  13    -0.500032689628E+03    0.14468E-04   -0.11975E-04  2100   0.222E-02    0.102E-01
RMM:  14    -0.500032714465E+03   -0.24837E-04   -0.47162E-05  2096   0.139E-02    0.656E-02
RMM:  15    -0.500032725626E+03   -0.11161E-04   -0.20031E-05  2095   0.934E-03    0.370E-02
RMM:  16    -0.500032766421E+03   -0.40795E-04   -0.11188E-05  2092   0.657E-03    0.358E-02
RMM:  17    -0.500032805162E+03   -0.38741E-04   -0.85224E-06  2061   0.574E-03    0.228E-02
RMM:  18    -0.500032848917E+03   -0.43755E-04   -0.59106E-06  1841   0.482E-03    0.268E-02
RMM:  19    -0.500032899315E+03   -0.50398E-04   -0.42122E-06  1696   0.435E-03    0.166E-02
RMM:  20    -0.500032941909E+03   -0.42594E-04   -0.21961E-06  1329   0.329E-03    0.155E-02
RMM:  21    -0.500032984386E+03   -0.42477E-04   -0.14928E-06  1221   0.286E-03    0.869E-03
RMM:  22    -0.500033020856E+03   -0.36469E-04   -0.70432E-07  1197   0.186E-03    0.824E-03
RMM:  23    -0.500033051537E+03   -0.30681E-04   -0.40102E-07  1188   0.145E-03    0.580E-03
RMM:  24    -0.500033091964E+03   -0.40428E-04   -0.26986E-07  1196   0.104E-03    0.582E-03
RMM:  25    -0.500033133512E+03   -0.41548E-04   -0.25141E-07  1204   0.938E-04    0.466E-03
RMM:  26    -0.500033204143E+03   -0.70631E-04   -0.41772E-07  1248   0.937E-04    0.526E-03
RMM:  27    -0.500033273524E+03   -0.69381E-04   -0.47555E-07  1268   0.103E-03    0.411E-03
RMM:  28    -0.500033363310E+03   -0.89786E-04   -0.78524E-07  1331   0.103E-03    0.394E-03
RMM:  29    -0.500033415438E+03   -0.52128E-04   -0.46775E-07  1261   0.953E-04    0.283E-03
RMM:  30    -0.500033466924E+03   -0.51486E-04   -0.53141E-07  1290   0.820E-04    0.329E-03
RMM:  31    -0.500033493430E+03   -0.26506E-04   -0.27809E-07  1180   0.738E-04    0.185E-03
RMM:  32    -0.500033513181E+03   -0.19750E-04   -0.22734E-07  1154   0.590E-04    0.242E-03
RMM:  33    -0.500033526950E+03   -0.13769E-04   -0.20254E-07  1151   0.580E-04    0.118E-03
RMM:  34    -0.500033531064E+03   -0.41145E-05   -0.99513E-08   982   0.438E-04    0.131E-03
RMM:  35    -0.500033531243E+03   -0.17893E-06   -0.76132E-08   898   0.383E-04
  18 F= -.53510478E+03 E0= -.53511192E+03  d E =-.106362E-01  mag=    92.8730
       N       E                     dE             d eps       ncg     rms          rms(c)
DAV:   1    -0.500027167479E+03    0.63636E-02   -0.97737E-01  2144   0.119E+00    0.375E-01
RMM:   2    -0.500031445391E+03   -0.42779E-02   -0.14764E-02  2100   0.277E-01    0.672E-01
RMM:   3    -0.500037937412E+03   -0.64920E-02   -0.63115E-03  2201   0.155E-01    0.137E+00
RMM:   4    -0.500032539921E+03    0.53975E-02   -0.28015E-03  2101   0.107E-01    0.787E-01
RMM:   5    -0.500030242711E+03    0.22972E-02   -0.11818E-03  2100   0.729E-02    0.175E-01
RMM:   6    -0.500030186754E+03    0.55957E-04   -0.18857E-04  2102   0.272E-02    0.100E-01
RMM:   7    -0.500030156658E+03    0.30095E-04   -0.69324E-05  2096   0.166E-02    0.101E-01
RMM:   8    -0.500030105476E+03    0.51183E-04   -0.49343E-05  2103   0.141E-02    0.614E-02
RMM:   9    -0.500030113519E+03   -0.80430E-05   -0.78546E-05  2100   0.168E-02    0.117E-01
RMM:  10    -0.500030067562E+03    0.45957E-04   -0.98892E-05  2102   0.184E-02    0.829E-02
RMM:  11    -0.500030043542E+03    0.24020E-04   -0.42696E-05  2101   0.127E-02    0.451E-02
RMM:  12    -0.500030039409E+03    0.41327E-05   -0.11767E-05  2037   0.665E-03    0.213E-02
RMM:  13    -0.500030040465E+03   -0.10552E-05   -0.28838E-06  1544   0.357E-03    0.161E-02
RMM:  14    -0.500030042753E+03   -0.22886E-05   -0.13186E-06  1172   0.280E-03    0.829E-03
RMM:  15    -0.500030047037E+03   -0.42842E-05   -0.76569E-07  1165   0.191E-03    0.976E-03
RMM:  16    -0.500030051877E+03   -0.48399E-05   -0.69058E-07  1167   0.182E-03    0.545E-03
RMM:  17    -0.500030057966E+03   -0.60885E-05   -0.60867E-07  1171   0.165E-03    0.753E-03
RMM:  18    -0.500030065148E+03   -0.71818E-05   -0.53438E-07  1178   0.165E-03    0.459E-03
RMM:  19    -0.500030068758E+03   -0.36100E-05   -0.23505E-07  1152   0.110E-03    0.343E-03
RMM:  20    -0.500030074163E+03   -0.54052E-05   -0.11128E-07  1156   0.774E-04    0.279E-03
RMM:  21    -0.500030077015E+03   -0.28526E-05   -0.45829E-08  1091   0.511E-04    0.160E-03
RMM:  22    -0.500030082791E+03   -0.57753E-05   -0.23616E-08   808   0.335E-04    0.178E-03
RMM:  23    -0.500030086983E+03   -0.41927E-05   -0.15519E-08   750   0.319E-04    0.124E-03
RMM:  24    -0.500030095468E+03   -0.84844E-05   -0.32729E-08   774   0.320E-04    0.146E-03
RMM:  25    -0.500030103194E+03   -0.77264E-05   -0.31381E-08   707   0.308E-04    0.998E-04
RMM:  26    -0.500030112847E+03   -0.96529E-05   -0.56175E-08   866   0.333E-04    0.129E-03
RMM:  27    -0.500030120432E+03   -0.75846E-05   -0.38681E-08   733   0.318E-04    0.761E-04
RMM:  28    -0.500030125559E+03   -0.51276E-05   -0.27306E-08   655   0.292E-04    0.816E-04
RMM:  29    -0.500030130285E+03   -0.47252E-05   -0.26357E-08   616   0.287E-04    0.583E-04
RMM:  30    -0.500030133816E+03   -0.35316E-05   -0.24755E-08   593   0.286E-04    0.652E-04
RMM:  31    -0.500030137400E+03   -0.35838E-05   -0.40750E-08   679   0.299E-04    0.461E-04
RMM:  32    -0.500030138777E+03   -0.13767E-05   -0.19077E-08   553   0.275E-04    0.396E-04
RMM:  33    -0.500030139461E+03   -0.68443E-06   -0.20431E-08   550   0.267E-04
  19 F= -.53510519E+03 E0= -.53511234E+03  d E =-.110443E-01  mag=    92.8751
       N       E                     dE             d eps       ncg     rms          rms(c)
DAV:   1    -0.499976475863E+03    0.53663E-01   -0.17158E+01  2096   0.502E+00    0.159E+00
RMM:   2    -0.500064274067E+03   -0.87798E-01   -0.25765E-01  2100   0.116E+00    0.342E+00
RMM:   3    -0.500149578223E+03   -0.85304E-01   -0.10828E-01  2194   0.640E-01    0.552E+00
RMM:   4    -0.500073310680E+03    0.76268E-01   -0.48097E-02  2101   0.441E-01    0.345E+00
RMM:   5    -0.500029400135E+03    0.43911E-01   -0.22134E-02  2101   0.315E-01    0.849E-01
RMM:   6    -0.500027969149E+03    0.14310E-02   -0.42196E-03  2101   0.132E-01    0.518E-01
RMM:   7    -0.500027293016E+03    0.67613E-03   -0.14608E-03  2100   0.791E-02    0.462E-01
RMM:   8    -0.500026474679E+03    0.81834E-03   -0.93466E-04  2104   0.637E-02    0.274E-01
RMM:   9    -0.500026943173E+03   -0.46849E-03   -0.14380E-03  2100   0.745E-02    0.522E-01
RMM:  10    -0.500026061258E+03    0.88192E-03   -0.15414E-03  2100   0.742E-02    0.275E-01
RMM:  11    -0.500025859887E+03    0.20137E-03   -0.66968E-04  2101   0.508E-02    0.182E-01
RMM:  12    -0.500025854346E+03    0.55409E-05   -0.27425E-04  2102   0.315E-02    0.156E-01
RMM:  13    -0.500025823375E+03    0.30971E-04   -0.11196E-04  2100   0.215E-02    0.932E-02
RMM:  14    -0.500025834521E+03   -0.11147E-04   -0.39906E-05  2096   0.129E-02    0.500E-02
RMM:  15    -0.500025846431E+03   -0.11910E-04   -0.16766E-05  2091   0.837E-03    0.412E-02
RMM:  16    -0.500025860030E+03   -0.13599E-04   -0.88856E-06  2014   0.601E-03    0.248E-02
RMM:  17    -0.500025883408E+03   -0.23378E-04   -0.65349E-06  1916   0.514E-03    0.255E-02
RMM:  18    -0.500025920980E+03   -0.37572E-04   -0.61671E-06  1999   0.475E-03    0.217E-02
RMM:  19    -0.500025947713E+03   -0.26733E-04   -0.34781E-06  1592   0.387E-03    0.162E-02
RMM:  20    -0.500025977391E+03   -0.29678E-04   -0.20203E-06  1262   0.326E-03    0.156E-02
RMM:  21    -0.500026000117E+03   -0.22726E-04   -0.12735E-06  1196   0.271E-03    0.646E-03
RMM:  22    -0.500026023013E+03   -0.22895E-04   -0.51796E-07  1189   0.159E-03    0.762E-03
RMM:  23    -0.500026043540E+03   -0.20527E-04   -0.32412E-07  1183   0.134E-03    0.405E-03
RMM:  24    -0.500026064489E+03   -0.20949E-04   -0.15267E-07  1185   0.787E-04    0.426E-03
RMM:  25    -0.500026092852E+03   -0.28363E-04   -0.14491E-07  1172   0.716E-04    0.293E-03
RMM:  26    -0.500026120805E+03   -0.27953E-04   -0.13512E-07  1129   0.619E-04    0.345E-03
RMM:  27    -0.500026174487E+03   -0.53682E-04   -0.32392E-07  1228   0.698E-04    0.250E-03
RMM:  28    -0.500026210381E+03   -0.35893E-04   -0.22168E-07  1194   0.674E-04    0.279E-03
RMM:  29    -0.500026257718E+03   -0.47338E-04   -0.35519E-07  1212   0.672E-04    0.202E-03
RMM:  30    -0.500026279152E+03   -0.21433E-04   -0.14671E-07  1061   0.533E-04    0.190E-03
RMM:  31    -0.500026305876E+03   -0.26724E-04   -0.20935E-07  1073   0.512E-04    0.147E-03
RMM:  32    -0.500026321467E+03   -0.15592E-04   -0.13230E-07  1048   0.475E-04    0.159E-03
RMM:  33    -0.500026337079E+03   -0.15612E-04   -0.17673E-07  1077   0.473E-04    0.118E-03
RMM:  34    -0.500026342301E+03   -0.52221E-05   -0.69036E-08   924   0.389E-04    0.943E-04
RMM:  35    -0.500026345054E+03   -0.27527E-05   -0.60183E-08   710   0.330E-04    0.615E-04
RMM:  36    -0.500026344958E+03    0.95941E-07   -0.15828E-08   590   0.294E-04
  20 F= -.53511478E+03 E0= -.53512158E+03  d E =-.959016E-02  mag=    92.8806
       N       E                     dE             d eps       ncg     rms          rms(c)
DAV:   1    -0.500009458453E+03    0.16887E-01   -0.40134E+00  2132   0.243E+00    0.765E-01
RMM:   2    -0.500028918327E+03   -0.19460E-01   -0.58186E-02  2100   0.548E-01    0.158E+00
RMM:   3    -0.500049971283E+03   -0.21053E-01   -0.25268E-02  2188   0.310E-01    0.268E+00
RMM:   4    -0.500032228652E+03    0.17743E-01   -0.11176E-02  2100   0.214E-01    0.168E+00
RMM:   5    -0.500021614221E+03    0.10614E-01   -0.50184E-03  2101   0.151E-01    0.368E-01
RMM:   6    -0.500021348298E+03    0.26592E-03   -0.85138E-04  2101   0.592E-02    0.209E-01
RMM:   7    -0.500021257707E+03    0.90590E-04   -0.30216E-04  2100   0.355E-02    0.220E-01
RMM:   8    -0.500021040119E+03    0.21759E-03   -0.21736E-04  2105   0.299E-02    0.126E-01
RMM:   9    -0.500021135707E+03   -0.95588E-04   -0.32983E-04  2100   0.356E-02    0.243E-01
RMM:  10    -0.500020938626E+03    0.19708E-03   -0.37624E-04  2100   0.356E-02    0.140E-01
RMM:  11    -0.500020872716E+03    0.65910E-04   -0.12773E-04  2102   0.223E-02    0.684E-02
RMM:  12    -0.500020871691E+03    0.10248E-05   -0.39505E-05  2096   0.118E-02    0.600E-02
RMM:  13    -0.500020865058E+03    0.66336E-05   -0.14170E-05  2041   0.759E-03    0.267E-02
RMM:  14    -0.500020872583E+03   -0.75252E-05   -0.43771E-06  1713   0.441E-03    0.217E-02
RMM:  15    -0.500020878026E+03   -0.54425E-05   -0.25254E-06  1341   0.362E-03    0.129E-02
RMM:  16    -0.500020886010E+03   -0.79849E-05   -0.18928E-06  1210   0.295E-03    0.142E-02
RMM:  17    -0.500020902102E+03   -0.16091E-04   -0.23946E-06  1260   0.316E-03    0.116E-02
RMM:  18    -0.500020910033E+03   -0.79311E-05   -0.14681E-06  1170   0.281E-03    0.816E-03
[...]
RMM:  13    -0.499990334950E+03    0.36540E-03   -0.16503E-03  2103   0.781E-02    0.343E-01
RMM:  14    -0.499990387950E+03   -0.53000E-04   -0.82615E-04  2101   0.569E-02    0.262E-01
RMM:  15    -0.499990533185E+03   -0.14524E-03   -0.43829E-04  2101   0.399E-02    0.200E-01
RMM:  16    -0.499990564225E+03   -0.31040E-04   -0.20867E-04  2101   0.297E-02    0.125E-01
RMM:  17    -0.499990702343E+03   -0.13812E-03   -0.10265E-04  2099   0.205E-02    0.116E-01
RMM:  18    -0.499990727211E+03   -0.24868E-04   -0.48977E-05  2096   0.148E-02    0.454E-02
RMM:  19    -0.499990777985E+03   -0.50774E-04   -0.19985E-05  2096   0.905E-03    0.530E-02
RMM:  20    -0.499990822858E+03   -0.44874E-04   -0.12768E-05  2091   0.723E-03    0.294E-02
RMM:  21    -0.499990882829E+03   -0.59971E-04   -0.10699E-05  2019   0.664E-03    0.363E-02
RMM:  22    -0.499990953703E+03   -0.70874E-04   -0.81664E-06  2032   0.554E-03    0.257E-02
RMM:  23    -0.499990983805E+03   -0.30102E-04   -0.38469E-06  1671   0.413E-03    0.171E-02
RMM:  24    -0.499991015577E+03   -0.31772E-04   -0.16588E-06  1249   0.301E-03    0.129E-02
RMM:  25    -0.499991027354E+03   -0.11778E-04   -0.85937E-07  1179   0.227E-03    0.748E-03
RMM:  26    -0.499991046133E+03   -0.18778E-04   -0.37165E-07  1186   0.136E-03    0.727E-03
RMM:  27    -0.499991059988E+03   -0.13855E-04   -0.27636E-07  1175   0.124E-03    0.545E-03
RMM:  28    -0.499991080597E+03   -0.20609E-04   -0.23596E-07  1187   0.971E-04    0.591E-03
RMM:  29    -0.499991104807E+03   -0.24210E-04   -0.28137E-07  1191   0.112E-03    0.484E-03
RMM:  30    -0.499991132071E+03   -0.27264E-04   -0.26130E-07  1203   0.952E-04    0.499E-03
RMM:  31    -0.499991156887E+03   -0.24816E-04   -0.25239E-07  1208   0.963E-04    0.336E-03
RMM:  32    -0.499991179795E+03   -0.22908E-04   -0.24479E-07  1218   0.812E-04    0.425E-03
RMM:  33    -0.499991194654E+03   -0.14858E-04   -0.19538E-07  1198   0.827E-04    0.229E-03
RMM:  34    -0.499991204470E+03   -0.98167E-05   -0.13613E-07  1126   0.619E-04    0.304E-03
RMM:  35    -0.499991210511E+03   -0.60411E-05   -0.10655E-07  1159   0.595E-04    0.162E-03
RMM:  36    -0.499991212783E+03   -0.22715E-05   -0.57420E-08  1005   0.427E-04    0.183E-03
RMM:  37    -0.499991214005E+03   -0.12217E-05   -0.59876E-08   942   0.391E-04    0.909E-04
RMM:  38    -0.499991214091E+03   -0.86358E-07   -0.15553E-08   668   0.304E-04
  28 F= -.53515350E+03 E0= -.53515932E+03  d E =-.132344E-01  mag=    92.8779
       N       E                     dE             d eps       ncg     rms          rms(c)
DAV:   1    -0.499982350432E+03    0.88636E-02   -0.49614E+00  2112   0.268E+00    0.788E-01
RMM:   2    -0.499996267582E+03   -0.13917E-01   -0.66807E-02  2100   0.584E-01    0.892E-01
RMM:   3    -0.500020349836E+03   -0.24082E-01   -0.29835E-02  2189   0.338E-01    0.253E+00
RMM:   4    -0.500000545900E+03    0.19804E-01   -0.11556E-02  2103   0.222E-01    0.104E+00
RMM:   5    -0.499996237141E+03    0.43088E-02   -0.21923E-03  2106   0.913E-02    0.269E-01
RMM:   6    -0.499996066127E+03    0.17101E-03   -0.57224E-04  2105   0.472E-02    0.204E-01
RMM:   7    -0.499995912084E+03    0.15404E-03   -0.22679E-04  2102   0.300E-02    0.182E-01
RMM:   8    -0.499995783428E+03    0.12866E-03   -0.17829E-04  2104   0.267E-02    0.137E-01
RMM:   9    -0.499995812683E+03   -0.29254E-04   -0.36821E-04  2100   0.357E-02    0.221E-01
RMM:  10    -0.499995712278E+03    0.10040E-03   -0.43860E-04  2112   0.381E-02    0.185E-01
RMM:  11    -0.499995614916E+03    0.97362E-04   -0.20829E-04  2103   0.275E-02    0.983E-02
RMM:  12    -0.499995591167E+03    0.23749E-04   -0.50298E-05  2102   0.137E-02    0.408E-02
RMM:  13    -0.499995587801E+03    0.33661E-05   -0.12476E-05  2020   0.685E-03    0.339E-02
RMM:  14    -0.499995584731E+03    0.30705E-05   -0.47514E-06  1732   0.460E-03    0.165E-02
RMM:  15    -0.499995586065E+03   -0.13341E-05   -0.23133E-06  1322   0.328E-03    0.177E-02
RMM:  16    -0.499995588785E+03   -0.27200E-05   -0.24442E-06  1243   0.329E-03    0.118E-02
RMM:  17    -0.499995591682E+03   -0.28967E-05   -0.20735E-06  1188   0.300E-03    0.137E-02
RMM:  18    -0.499995596115E+03   -0.44337E-05   -0.21928E-06  1204   0.316E-03    0.743E-03
RMM:  19    -0.499995598928E+03   -0.28129E-05   -0.10451E-06  1158   0.237E-03    0.687E-03
RMM:  20    -0.499995601909E+03   -0.29811E-05   -0.44694E-07  1157   0.160E-03    0.500E-03
RMM:  21    -0.499995603628E+03   -0.17182E-05   -0.17089E-07  1149   0.998E-04    0.282E-03
RMM:  22    -0.499995606193E+03   -0.25656E-05   -0.71167E-08  1150   0.618E-04    0.242E-03
RMM:  23    -0.499995608403E+03   -0.22102E-05   -0.37044E-08  1056   0.475E-04    0.141E-03
RMM:  24    -0.499995612315E+03   -0.39117E-05   -0.26584E-08   933   0.360E-04    0.190E-03
RMM:  25    -0.499995615813E+03   -0.34984E-05   -0.21885E-08   893   0.357E-04    0.113E-03
RMM:  26    -0.499995620446E+03   -0.46323E-05   -0.21805E-08   754   0.311E-04    0.124E-03
RMM:  27    -0.499995623732E+03   -0.32859E-05   -0.97575E-09   597   0.292E-04    0.785E-04
RMM:  28    -0.499995626748E+03   -0.30158E-05   -0.55634E-09   399   0.269E-04    0.895E-04
RMM:  29    -0.499995629843E+03   -0.30956E-05   -0.63162E-09   391   0.260E-04    0.680E-04
RMM:  30    -0.499995632717E+03   -0.28734E-05   -0.10391E-08   448   0.273E-04    0.715E-04
RMM:  31    -0.499995637830E+03   -0.51135E-05   -0.39424E-08   634   0.302E-04    0.497E-04
RMM:  32    -0.499995639912E+03   -0.20824E-05   -0.14148E-08   534   0.276E-04    0.495E-04
RMM:  33    -0.499995642241E+03   -0.23290E-05   -0.23151E-08   550   0.276E-04    0.342E-04
RMM:  34    -0.499995642912E+03   -0.67028E-06   -0.56576E-09   399   0.252E-04
  29 F= -.53515400E+03 E0= -.53515988E+03  d E =-.137341E-01  mag=    92.8720
       N       E                     dE             d eps       ncg     rms          rms(c)
DAV:   1    -0.499946771252E+03    0.48871E-01   -0.20129E+01  2096   0.541E+00    0.160E+00
RMM:   2    -0.500007278524E+03   -0.60507E-01   -0.28240E-01  2100   0.121E+00    0.210E+00
RMM:   3    -0.500117904382E+03   -0.11063E+00   -0.13042E-01  2179   0.710E-01    0.554E+00
RMM:   4    -0.500036716763E+03    0.81188E-01   -0.45320E-02  2104   0.437E-01    0.278E+00
RMM:   5    -0.500003791228E+03    0.32926E-01   -0.14596E-02  2100   0.245E-01    0.627E-01
RMM:   6    -0.500002789528E+03    0.10017E-02   -0.32703E-03  2101   0.115E-01    0.449E-01
RMM:   7    -0.500002216032E+03    0.57350E-03   -0.12063E-03  2102   0.699E-02    0.415E-01
RMM:   8    -0.500001560852E+03    0.65518E-03   -0.87694E-04  2104   0.602E-02    0.283E-01
RMM:   9    -0.500001944290E+03   -0.38344E-03   -0.14790E-03  2102   0.735E-02    0.503E-01
RMM:  10    -0.500001338221E+03    0.60607E-03   -0.18084E-03  2111   0.791E-02    0.343E-01
RMM:  11    -0.500001005620E+03    0.33260E-03   -0.92970E-04  2104   0.581E-02    0.211E-01
RMM:  12    -0.500000892298E+03    0.11332E-03   -0.26537E-04  2103   0.316E-02    0.105E-01
RMM:  13    -0.500000883910E+03    0.83880E-05   -0.75376E-05  2100   0.171E-02    0.840E-02
RMM:  14    -0.500000864857E+03    0.19053E-04   -0.25683E-05  2096   0.106E-02    0.367E-02
RMM:  15    -0.500000863638E+03    0.12196E-05   -0.11849E-05  2075   0.691E-03    0.358E-02
RMM:  16    -0.500000860976E+03    0.26617E-05   -0.85421E-06  2077   0.544E-03    0.239E-02
RMM:  17    -0.500000863149E+03   -0.21732E-05   -0.70950E-06  1967   0.508E-03    0.277E-02
RMM:  18    -0.500000864474E+03   -0.13243E-05   -0.68998E-06  2063   0.463E-03    0.192E-02
RMM:  19    -0.500000865082E+03   -0.60882E-06   -0.31623E-06  1567   0.363E-03
  30 F= -.53516172E+03 E0= -.53516728E+03  d E =-.772197E-02  mag=    92.8720
       N       E                     dE             d eps       ncg     rms          rms(c)
DAV:   1    -0.499969987832E+03    0.30877E-01   -0.11516E+01  2096   0.409E+00    0.121E+00
RMM:   2    -0.500004285580E+03   -0.34298E-01   -0.15931E-01  2100   0.908E-01    0.157E+00
RMM:   3    -0.500065338186E+03   -0.61053E-01   -0.74449E-02  2180   0.537E-01    0.413E+00
RMM:   4    -0.500020706845E+03    0.44631E-01   -0.25964E-02  2100   0.332E-01    0.207E+00
RMM:   5    -0.500002411069E+03    0.18296E-01   -0.79185E-03  2100   0.180E-01    0.460E-01
RMM:   6    -0.500001857502E+03    0.55357E-03   -0.17239E-03  2103   0.831E-02    0.314E-01
RMM:   7    -0.500001568182E+03    0.28932E-03   -0.63254E-04  2102   0.503E-02    0.309E-01
RMM:   8    -0.500001199223E+03    0.36896E-03   -0.48788E-04  2104   0.445E-02    0.209E-01
RMM:   9    -0.500001493810E+03   -0.29459E-03   -0.91550E-04  2101   0.577E-02    0.406E-01
RMM:  10    -0.500001046019E+03    0.44779E-03   -0.10572E-03  2111   0.601E-02    0.241E-01
RMM:  11    -0.500000890740E+03    0.15528E-03   -0.46914E-04  2102   0.413E-02    0.152E-01
RMM:  12    -0.500000830416E+03    0.60324E-04   -0.13101E-04  2105   0.220E-02    0.726E-02
RMM:  13    -0.500000826193E+03    0.42227E-05   -0.35341E-05  2096   0.117E-02    0.558E-02
RMM:  14    -0.500000818884E+03    0.73095E-05   -0.12001E-05  2037   0.724E-03    0.265E-02
RMM:  15    -0.500000818596E+03    0.28740E-06   -0.60253E-06  1893   0.497E-03
  31 F= -.53516366E+03 E0= -.53516897E+03  d E =-.966245E-02  mag=    92.8723
       N       E                     dE             d eps       ncg     rms          rms(c)
DAV:   1    -0.499969500852E+03    0.31318E-01   -0.14911E+01  2096   0.465E+00    0.140E+00
RMM:   2    -0.500013753400E+03   -0.44253E-01   -0.21105E-01  2100   0.105E+00    0.165E+00
RMM:   3    -0.500064317262E+03   -0.50564E-01   -0.94021E-02  2187   0.604E-01    0.379E+00
RMM:   4    -0.500015944627E+03    0.48373E-01   -0.36868E-02  2100   0.404E-01    0.104E+00
RMM:   5    -0.500013603583E+03    0.23410E-02   -0.52500E-03  2120   0.137E-01    0.710E-01
RMM:   6    -0.500011983491E+03    0.16201E-02   -0.16053E-03  2105   0.779E-02    0.378E-01
RMM:   7    -0.500011476562E+03    0.50693E-03   -0.75971E-04  2103   0.539E-02    0.322E-01
RMM:   8    -0.500011036216E+03    0.44035E-03   -0.55946E-04  2099   0.475E-02    0.235E-01
RMM:   9    -0.500011059777E+03   -0.23561E-04   -0.95590E-04  2102   0.579E-02    0.331E-01
RMM:  10    -0.500011068116E+03   -0.83388E-05   -0.13664E-03  2118   0.691E-02    0.369E-01
RMM:  11    -0.500010586723E+03    0.48139E-03   -0.74360E-04  2104   0.522E-02    0.153E-01
RMM:  12    -0.500010526113E+03    0.60609E-04   -0.15107E-04  2104   0.240E-02    0.692E-02
RMM:  13    -0.500010525750E+03    0.36367E-06   -0.37712E-05  2097   0.120E-02    0.654E-02
RMM:  14    -0.500010508975E+03    0.16775E-04   -0.15261E-05  2093   0.812E-03    0.308E-02
RMM:  15    -0.500010508672E+03    0.30279E-06   -0.75513E-06  1978   0.552E-03
  32 F= -.53516931E+03 E0= -.53517452E+03  d E =-.565225E-02  mag=    92.8813
       N       E                     dE             d eps       ncg     rms          rms(c)
DAV:   1    -0.500006341968E+03    0.41670E-02   -0.22778E+00  2128   0.182E+00    0.544E-01
RMM:   2    -0.500013051140E+03   -0.67092E-02   -0.31614E-02  2100   0.402E-01    0.635E-01
RMM:   3    -0.500021029008E+03   -0.79779E-02   -0.14445E-02  2184   0.237E-01    0.150E+00
RMM:   4    -0.500013315985E+03    0.77130E-02   -0.56937E-03  2100   0.159E-01    0.411E-01
RMM:   5    -0.500012940308E+03    0.37568E-03   -0.80452E-04  2137   0.545E-02    0.221E-01
RMM:   6    -0.500012821656E+03    0.11865E-03   -0.18508E-04  2109   0.250E-02    0.155E-01
RMM:   7    -0.500012723447E+03    0.98209E-04   -0.11096E-04  2102   0.208E-02    0.128E-01
RMM:   8    -0.500012658548E+03    0.64899E-04   -0.83653E-05  2097   0.184E-02    0.911E-02
RMM:   9    -0.500012673696E+03   -0.15148E-04   -0.14967E-04  2103   0.227E-02    0.149E-01
RMM:  10    -0.500012643585E+03    0.30111E-04   -0.20869E-04  2111   0.268E-02    0.133E-01
RMM:  11    -0.500012594240E+03    0.49345E-04   -0.10840E-04  2105   0.197E-02    0.716E-02
RMM:  12    -0.500012581674E+03    0.12566E-04   -0.26163E-05  2096   0.993E-03    0.271E-02
RMM:  13    -0.500012584738E+03   -0.30638E-05   -0.57541E-06  1834   0.469E-03    0.238E-02
RMM:  14    -0.500012585051E+03   -0.31322E-06   -0.22742E-06  1366   0.351E-03
  33 F= -.53516985E+03 E0= -.53517502E+03  d E =-.618650E-02  mag=    92.8883
       N       E                     dE             d eps       ncg     rms          rms(c)
DAV:   1    -0.499989547587E+03    0.23037E-01   -0.13179E+01  2096   0.436E+00    0.128E+00
RMM:   2    -0.500027696521E+03   -0.38149E-01   -0.18605E-01  2100   0.998E-01    0.150E+00
RMM:   3    -0.500074554116E+03   -0.46858E-01   -0.81639E-02  2200   0.563E-01    0.357E+00
RMM:   4    -0.500035308111E+03    0.39246E-01   -0.30991E-02  2101   0.367E-01    0.149E+00
RMM:   5    -0.500027275197E+03    0.80329E-02   -0.52163E-03  2106   0.139E-01    0.588E-01
RMM:   6    -0.500026089824E+03    0.11854E-02   -0.17423E-03  2100   0.827E-02    0.334E-01
RMM:   7    -0.500025598901E+03    0.49092E-03   -0.72619E-04  2105   0.534E-02    0.295E-01
RMM:   8    -0.500025232499E+03    0.36640E-03   -0.55239E-04  2100   0.473E-02    0.241E-01
RMM:   9    -0.500025178913E+03    0.53587E-04   -0.93944E-04  2102   0.570E-02    0.325E-01
RMM:  10    -0.500025080321E+03    0.98592E-04   -0.12261E-03  2126   0.660E-02    0.353E-01
RMM:  11    -0.500024657720E+03    0.42260E-03   -0.60781E-04  2102   0.478E-02    0.147E-01
RMM:  12    -0.500024602146E+03    0.55574E-04   -0.12794E-04  2103   0.221E-02    0.653E-02
RMM:  13    -0.500024610771E+03   -0.86252E-05   -0.32473E-05  2098   0.111E-02    0.592E-02
RMM:  14    -0.500024608652E+03    0.21197E-05   -0.14351E-05  2087   0.786E-03    0.311E-02
RMM:  15    -0.500024621448E+03   -0.12796E-04   -0.74219E-06  1969   0.550E-03    0.287E-02
RMM:  16    -0.500024646733E+03   -0.25285E-04   -0.74222E-06  2085   0.474E-03    0.204E-02
RMM:  17    -0.500024673591E+03   -0.26858E-04   -0.56678E-06  1900   0.444E-03    0.231E-02
RMM:  18    -0.500024713527E+03   -0.39936E-04   -0.46364E-06  1769   0.400E-03    0.160E-02
RMM:  19    -0.500024733048E+03   -0.19520E-04   -0.18065E-06  1230   0.303E-03    0.110E-02
RMM:  20    -0.500024761500E+03   -0.28453E-04   -0.95950E-07  1193   0.226E-03    0.108E-02
RMM:  21    -0.500024783312E+03   -0.21812E-04   -0.51654E-07  1183   0.170E-03    0.679E-03
RMM:  22    -0.500024814175E+03   -0.30863E-04   -0.35438E-07  1193   0.117E-03    0.698E-03
RMM:  23    -0.500024845877E+03   -0.31702E-04   -0.32315E-07  1194   0.115E-03    0.509E-03
RMM:  24    -0.500024901178E+03   -0.55301E-04   -0.51891E-07  1226   0.110E-03    0.671E-03
RMM:  25    -0.500024957349E+03   -0.56172E-04   -0.60653E-07  1242   0.122E-03    0.462E-03
RMM:  26    -0.500025013531E+03   -0.56181E-04   -0.69729E-07  1249   0.115E-03    0.574E-03
RMM:  27    -0.500025071000E+03   -0.57469E-04   -0.87693E-07  1270   0.122E-03    0.300E-03
RMM:  28    -0.500025099905E+03   -0.28905E-04   -0.44619E-07  1209   0.903E-04    0.398E-03
RMM:  29    -0.500025127856E+03   -0.27950E-04   -0.53450E-07  1236   0.927E-04    0.254E-03
RMM:  30    -0.500025137310E+03   -0.94542E-05   -0.20882E-07  1115   0.685E-04    0.239E-03
RMM:  31    -0.500025145323E+03   -0.80134E-05   -0.25907E-07  1113   0.612E-04    0.165E-03
RMM:  32    -0.500025145856E+03   -0.53309E-06   -0.92434E-08  1021   0.494E-04
  34 F= -.53517438E+03 E0= -.53517934E+03  d E =-.453407E-02  mag=    92.9148
       N       E                     dE             d eps       ncg     rms          rms(c)
DAV:   1    -0.500025248324E+03   -0.10300E-03   -0.74693E-01  2152   0.104E+00    0.303E-01
RMM:   2    -0.500027369707E+03   -0.21214E-02   -0.10292E-02  2100   0.233E-01    0.353E-01
RMM:   3    -0.500030615329E+03   -0.32456E-02   -0.45640E-03  2195   0.133E-01    0.915E-01
RMM:   4    -0.500028264661E+03    0.23507E-02   -0.16624E-03  2101   0.841E-02    0.484E-01
RMM:   5    -0.500027325163E+03    0.93950E-03   -0.41888E-04  2105   0.410E-02    0.117E-01
RMM:   6    -0.500027295034E+03    0.30128E-04   -0.98345E-05  2096   0.198E-02    0.696E-02
RMM:   7    -0.500027272801E+03    0.22233E-04   -0.35950E-05  2103   0.117E-02    0.703E-02
RMM:   8    -0.500027252289E+03    0.20513E-04   -0.31295E-05  2097   0.112E-02    0.567E-02
RMM:   9    -0.500027255717E+03   -0.34283E-05   -0.63640E-05  2101   0.147E-02    0.948E-02
RMM:  10    -0.500027223092E+03    0.32625E-04   -0.68372E-05  2128   0.156E-02    0.682E-02
RMM:  11    -0.500027209021E+03    0.14071E-04   -0.26583E-05  2097   0.992E-03    0.349E-02
RMM:  12    -0.500027206172E+03    0.28482E-05   -0.61060E-06  1829   0.486E-03    0.151E-02
RMM:  13    -0.500027206605E+03   -0.43288E-06   -0.14901E-06  1186   0.278E-03
  35 F= -.53517455E+03 E0= -.53517945E+03  d E =-.470668E-02  mag=    92.9167
       N       E                     dE             d eps       ncg     rms          rms(c)
DAV:   1    -0.500017922859E+03    0.92833E-02   -0.82753E+00  2096   0.346E+00    0.102E+00
RMM:   2    -0.500045450567E+03   -0.27528E-01   -0.11776E-01  2100   0.788E-01    0.152E+00
RMM:   3    -0.500096352584E+03   -0.50902E-01   -0.52867E-02  2193   0.450E-01    0.368E+00
RMM:   4    -0.500056877903E+03    0.39475E-01   -0.19513E-02  2102   0.284E-01    0.198E+00
RMM:   5    -0.500041386405E+03    0.15491E-01   -0.74556E-03  2100   0.179E-01    0.391E-01
RMM:   6    -0.500041036651E+03    0.34975E-03   -0.14151E-03  2103   0.740E-02    0.303E-01
RMM:   7    -0.500040739394E+03    0.29726E-03   -0.57299E-04  2099   0.477E-02    0.280E-01
RMM:   8    -0.500040385205E+03    0.35419E-03   -0.39507E-04  2104   0.403E-02    0.182E-01
RMM:   9    -0.500040407944E+03   -0.22739E-04   -0.63583E-04  2100   0.476E-02    0.305E-01
RMM:  10    -0.500040107565E+03    0.30038E-03   -0.77801E-04  2115   0.521E-02    0.242E-01
RMM:  11    -0.500039910321E+03    0.19724E-03   -0.37771E-04  2100   0.376E-02    0.144E-01
RMM:  12    -0.500039852601E+03    0.57720E-04   -0.11193E-04  2102   0.210E-02    0.591E-02
RMM:  13    -0.500039854243E+03   -0.16420E-05   -0.24951E-05  2097   0.994E-03    0.467E-02
RMM:  14    -0.500039856079E+03   -0.18368E-05   -0.10983E-05  2001   0.689E-03    0.273E-02
RMM:  15    -0.500039867298E+03   -0.11218E-04   -0.49979E-06  1767   0.464E-03    0.235E-02
RMM:  16    -0.500039888862E+03   -0.21564E-04   -0.44540E-06  1784   0.409E-03    0.181E-02
RMM:  17    -0.500039913104E+03   -0.24243E-04   -0.36065E-06  1578   0.383E-03    0.194E-02
RMM:  18    -0.500039956284E+03   -0.43179E-04   -0.39569E-06  1585   0.386E-03    0.134E-02
RMM:  19    -0.500039976961E+03   -0.20677E-04   -0.15825E-06  1191   0.289E-03    0.926E-03
RMM:  20    -0.500040009148E+03   -0.32187E-04   -0.78726E-07  1191   0.205E-03    0.890E-03
RMM:  21    -0.500040030675E+03   -0.21527E-04   -0.40805E-07  1177   0.150E-03    0.603E-03
RMM:  22    -0.500040064824E+03   -0.34149E-04   -0.26418E-07  1192   0.990E-04    0.532E-03
RMM:  23    -0.500040093807E+03   -0.28982E-04   -0.20995E-07  1187   0.927E-04    0.443E-03
RMM:  24    -0.500040158834E+03   -0.65028E-04   -0.43697E-07  1224   0.908E-04    0.558E-03
RMM:  25    -0.500040207544E+03   -0.48710E-04   -0.36154E-07  1207   0.979E-04    0.443E-03
RMM:  26    -0.500040273652E+03   -0.66107E-04   -0.59006E-07  1244   0.963E-04    0.490E-03
RMM:  27    -0.500040331779E+03   -0.58128E-04   -0.62029E-07  1247   0.101E-03    0.272E-03
RMM:  28    -0.500040370431E+03   -0.38652E-04   -0.44600E-07  1202   0.803E-04    0.360E-03
RMM:  29    -0.500040396568E+03   -0.26137E-04   -0.33606E-07  1172   0.783E-04    0.204E-03
RMM:  30    -0.500040411944E+03   -0.15376E-04   -0.22544E-07  1115   0.610E-04    0.241E-03
RMM:  31    -0.500040421974E+03   -0.10031E-04   -0.27914E-07  1111   0.613E-04    0.135E-03
RMM:  32    -0.500040421254E+03    0.71992E-06   -0.98837E-08  1000   0.467E-04
  36 F= -.53517787E+03 E0= -.53518258E+03  d E =-.331522E-02  mag=    92.9249
