ML                                      
           1
     8.964567   -5.097075   -0.055442
     0.064426   10.311845    0.041676
    -0.023049    0.036527   22.943498
   Pt   Pd   Ni   Co   Fe
  15  16  18  14  17
Direct configuration=     1
   0.59491670  0.87091088  0.09532310
   0.93909752  0.28677509  0.47047399
   0.68139430  0.04298249  0.47043295
   0.01470986  0.20617824  0.28359107
   0.59039557  0.86047037  0.37602269
   0.25891603  0.45051730  0.27963856
   0.34285793  0.61294767  0.09647612
   0.60638766  0.61715153  0.09367267
   0.94240202  0.02848413  0.47224468
   0.34335410  0.86378138  0.37230269
   0.19072252  0.28844948  0.18357438
   0.93138362  0.77126084  0.18437801
   0.93019564  0.02912708  0.18587893
   0.10148360  0.85938460  0.37410090
   0.10662695  0.11300883  0.37844419
   0.93485916  0.79611805  0.47265726
   0.59108173  0.35998575  0.09243855
   0.35605425  0.37376797  0.37668227
   0.17722155  0.79140968  0.46732605
   0.42215789  0.02960054  0.46808914
   0.93597349  0.29025775  0.19048387
   0.67641206  0.77245916  0.46884397
   0.67922292  0.28325972  0.19056112
   0.51197538  0.95186930  0.28134889
   0.26559454  0.70601238  0.28073805
   0.67707403  0.53606481  0.46766818
   0.59639516  0.61778183  0.37862741
   0.85148984  0.12062109  0.09258714
   0.43431841  0.02463282  0.18735144
   0.19039991  0.02973983  0.18567040
   0.85206989  0.37522601  0.09388359
   0.34660117  0.11230241  0.37226020
   0.10285469  0.36819155  0.09352952
   0.92514305  0.53527550  0.46938571
   0.51119529  0.70412759  0.28210462
   0.67724655  0.77635350  0.18806043
   0.42995674  0.77723423  0.18948955
   0.93900317  0.53624495  0.18964124
   0.43263653  0.77938606  0.46687651
   0.18254830  0.77449380  0.18896229
   0.02606465  0.94996744  0.28247275
   0.34861548  0.62658374  0.37373671
   0.68035929  0.02843972  0.18892144
   0.34204928  0.87602283  0.09189088
   0.18147682  0.03769940  0.47424620
   0.02288605  0.69219344  0.28264854
   0.10515134  0.11003575  0.09072500
   0.27353371  0.95221465  0.28444321
   0.27248965  0.19579432  0.28072955
   0.43467345  0.28991677  0.18623233
   0.50469175  0.19030807  0.28029018
   0.01623226  0.45886165  0.28043390
   0.17826453  0.28116357  0.46982226
   0.84293556  0.85856733  0.38075396
   0.10183863  0.37883990  0.37741299
   0.76260222  0.95502798  0.28119241
   0.43168000  0.28285232  0.47050352
   0.18150476  0.53355234  0.46802055
   0.68106204  0.28815832  0.46936899
   0.18442594  0.54143652  0.18855384
   0.51796317  0.43995480  0.27975254
   0.10579428  0.62690549  0.37096022
   0.84683592  0.61770184  0.37774782
   0.77021094  0.69101799  0.28304359
   0.68243432  0.53023993  0.18792743
   0.77106061  0.44687840  0.28028247
   0.60215590  0.37490513  0.37639847
   0.43552004  0.53585908  0.46950869
   0.76818989  0.20644988  0.28053110
   0.85939447  0.61931786  0.08945355
   0.10172581  0.61948493  0.09757686
   0.43413471  0.53589320  0.18726337
   0.84678227  0.37606475  0.37320235
   0.58831277  0.11514942  0.37216144
   0.59595727  0.11332925  0.09432732
   0.09539234  0.85706994  0.09144586
   0.34268852  0.11409184  0.09177448
   0.84963255  0.11991404  0.37637361
   0.85829658  0.87187979  0.09136503
   0.34335680  0.35873545  0.09074482
Direct configuration=     2
   0.59491670  0.87091088  0.09532310
   0.93913514  0.29223770  0.46973039
   0.68187919  0.04049436  0.47046564
   0.00938090  0.19721522  0.28619716
   0.60258738  0.87261818  0.37374400
   0.27041142  0.45587714  0.28117886
   0.34285793  0.61294767  0.09647612
   0.60638766  0.61715153  0.09367267
   0.93759217  0.04419872  0.47355392
   0.35065615  0.86796938  0.37524075
   0.19072252  0.28844948  0.18357438
   0.93138362  0.77126084  0.18437801
   0.93019564  0.02912708  0.18587893
   0.08703280  0.86046261  0.37032918
   0.10337398  0.11812412  0.37642172
   0.93262470  0.77856557  0.47422943
   0.59108173  0.35998575  0.09243855
   0.35111019  0.36906683  0.37663520
   0.17809381  0.77910470  0.47181044
   0.42862307  0.03910694  0.46951584
   0.93597349  0.29025775  0.19048387
   0.67619040  0.78534273  0.47379777
   0.67922292  0.28325972  0.19056112
   0.52399035  0.95597399  0.28054729
   0.26143127  0.69826569  0.27822681
   0.68058657  0.52467860  0.47115894
   0.59756206  0.61457285  0.37163879
   0.85148984  0.12062109  0.09258714
   0.43431841  0.02463282  0.18735144
   0.19039991  0.02973983  0.18567040
   0.85206989  0.37522601  0.09388359
   0.35312195  0.11759029  0.37224332
   0.10285469  0.36819155  0.09352952
   0.92666228  0.53305996  0.46787970
   0.51643598  0.70062973  0.28095894
   0.67724655  0.77635350  0.18806043
   0.42995674  0.77723423  0.18948955
   0.93900317  0.53624495  0.18964124
   0.42873238  0.77592986  0.46761936
   0.18254830  0.77449380  0.18896229
   0.02093887  0.94745006  0.28242166
   0.34294611  0.61816431  0.37538413
   0.68035929  0.02843972  0.18892144
   0.34204928  0.87602283  0.09189088
   0.18724614  0.04344717  0.47373565
   0.01524382  0.69320366  0.28176859
   0.10515134  0.11003575  0.09072500
   0.26740308  0.95600380  0.28211910
   0.27330270  0.19679067  0.28068122
   0.43467345  0.28991677  0.18623233
   0.50574979  0.19614723  0.28149711
   0.01364284  0.45784980  0.28222239
   0.18243487  0.28368681  0.46923629
   0.84616789  0.86247241  0.37647447
   0.09882765  0.37989630  0.37774665
   0.76449875  0.95214917  0.28199249
   0.43055415  0.28314343  0.46924199
   0.18400559  0.53342058  0.46606708
   0.68014621  0.28862495  0.46729495
   0.18442594  0.54143652  0.18855384
   0.51983063  0.44097831  0.27929231
   0.09779236  0.61154825  0.37270372
   0.84925872  0.61555172  0.37625095
   0.76965156  0.69362778  0.28319463
   0.68243432  0.53023993  0.18792743
   0.77040766  0.44992028  0.28178285
   0.60269089  0.36952887  0.37595671
   0.42621180  0.53215207  0.46989651
   0.76590372  0.20382123  0.28148830
   0.85939447  0.61931786  0.08945355
   0.10172581  0.61948493  0.09757686
   0.43413471  0.53589320  0.18726337
   0.85029404  0.37825178  0.37444256
   0.59305679  0.12186948  0.37330906
   0.59595727  0.11332925  0.09432732
   0.09539234  0.85706994  0.09144586
   0.34268852  0.11409184  0.09177448
   0.84888566  0.11870206  0.37568674
   0.85829658  0.87187979  0.09136503
   0.34335680  0.35873545  0.09074482
Direct configuration=     3
   0.59491670  0.87091088  0.09532310
   0.93913798  0.29264986  0.46967429
   0.68191578  0.04030663  0.47046810
   0.00897883  0.19653895  0.28639379
   0.60350726  0.87353474  0.37357207
   0.27127875  0.45628154  0.28129508
   0.34285793  0.61294767  0.09647612
   0.60638766  0.61715153  0.09367267
   0.93722927  0.04538439  0.47365270
   0.35120709  0.86828537  0.37546243
   0.19072252  0.28844948  0.18357438
   0.93138362  0.77126084  0.18437801
   0.93019564  0.02912708  0.18587893
   0.08594248  0.86054395  0.37004461
   0.10312854  0.11851007  0.37626912
   0.93245611  0.77724123  0.47434805
   0.59108173  0.35998575  0.09243855
   0.35073716  0.36871213  0.37663165
   0.17815962  0.77817628  0.47214879
   0.42911087  0.03982420  0.46962349
   0.93597349  0.29025775  0.19048387
   0.67617367  0.78631480  0.47417153
   0.67922292  0.28325972  0.19056112
   0.52489689  0.95628369  0.28048681
   0.26111715  0.69768120  0.27803734
   0.68085159  0.52381951  0.47142232
   0.59765010  0.61433073  0.37111149
   0.85148984  0.12062109  0.09258714
   0.43431841  0.02463282  0.18735144
   0.19039991  0.02973983  0.18567040
   0.85206989  0.37522601  0.09388359
   0.35361395  0.11798927  0.37224205
   0.10285469  0.36819155  0.09352952
   0.92677690  0.53289280  0.46776607
   0.51683140  0.70036582  0.28087249
   0.67724655  0.77635350  0.18806043
   0.42995674  0.77723423  0.18948955
   0.93900317  0.53624495  0.18964124
   0.42843781  0.77566909  0.46767541
   0.18254830  0.77449380  0.18896229
   0.02055213  0.94726012  0.28241780
   0.34251836  0.61752906  0.37550843
   0.68035929  0.02843972  0.18892144
   0.34204928  0.87602283  0.09189088
   0.18768144  0.04388084  0.47369713
   0.01466722  0.69327989  0.28170220
   0.10515134  0.11003575  0.09072500
   0.26694052  0.95628969  0.28194375
   0.27336405  0.19686584  0.28067757
   0.43467345  0.28991677  0.18623233
   0.50582961  0.19658780  0.28158817
   0.01344747  0.45777346  0.28235734
   0.18274953  0.28387719  0.46919208
   0.84641177  0.86276705  0.37615158
   0.09860047  0.37997600  0.37777182
   0.76464185  0.95193197  0.28205286
   0.43046920  0.28316540  0.46914681
   0.18419428  0.53341064  0.46591969
   0.68007711  0.28866016  0.46713847
   0.18442594  0.54143652  0.18855384
   0.51997153  0.44105554  0.27925759
   0.09718861  0.61038954  0.37283527
   0.84944152  0.61538949  0.37613801
   0.76960935  0.69382469  0.28320603
   0.68243432  0.53023993  0.18792743
   0.77035840  0.45014979  0.28189605
   0.60273125  0.36912323  0.37592337
   0.42550949  0.53187237  0.46992578
   0.76573122  0.20362290  0.28156052
   0.85939447  0.61931786  0.08945355
   0.10172581  0.61948493  0.09757686
   0.43413471  0.53589320  0.18726337
   0.85055900  0.37841679  0.37453614
   0.59341473  0.12237651  0.37339565
   0.59595727  0.11332925  0.09432732
   0.09539234  0.85706994  0.09144586
   0.34268852  0.11409184  0.09177448
   0.84882930  0.11861061  0.37563491
   0.85829658  0.87187979  0.09136503
   0.34335680  0.35873545  0.09074482
Direct configuration=     4
   0.59491670  0.87091088  0.09532310
   0.93882226  0.30029318  0.46914802
   0.68103863  0.04315930  0.47096188
   0.00902207  0.19770694  0.28558560
   0.60982584  0.87446355  0.37323619
   0.27370966  0.45356346  0.28157165
   0.34285793  0.61294767  0.09647612
   0.60638766  0.61715153  0.09367267
   0.93868917  0.04226419  0.47418408
   0.34609826  0.86768732  0.37520852
   0.19072252  0.28844948  0.18357438
   0.93138362  0.77126084  0.18437801
   0.93019564  0.02912708  0.18587893
   0.08742335  0.85713831  0.37096226
   0.10089962  0.11867545  0.37704568
   0.93027816  0.77791745  0.47447177
   0.59108173  0.35998575  0.09243855
   0.35063172  0.36702214  0.37694822
   0.18123333  0.77404025  0.47302339
   0.43095510  0.04465685  0.47088581
   0.93597349  0.29025775  0.19048387
   0.67529390  0.78368988  0.47524281
   0.67922292  0.28325972  0.19056112
   0.52625158  0.95670643  0.28004875
   0.26094853  0.70019656  0.27919102
   0.67876273  0.52333482  0.47224353
   0.60129106  0.61512219  0.37032991
   0.85148984  0.12062109  0.09258714
   0.43431841  0.02463282  0.18735144
   0.19039991  0.02973983  0.18567040
   0.85206989  0.37522601  0.09388359
   0.35621088  0.12084242  0.37220133
   0.10285469  0.36819155  0.09352952
   0.92989052  0.53012451  0.46632025
   0.52153441  0.69957451  0.27975064
   0.67724655  0.77635350  0.18806043
   0.42995674  0.77723423  0.18948955
   0.93900317  0.53624495  0.18964124
   0.42631660  0.77357272  0.46777841
   0.18254830  0.77449380  0.18896229
   0.01466362  0.94614282  0.28094292
   0.34175154  0.61521618  0.37680044
   0.68035929  0.02843972  0.18892144
   0.34204928  0.87602283  0.09189088
   0.18840970  0.04672473  0.47236689
   0.01010716  0.69310485  0.28111269
   0.10515134  0.11003575  0.09072500
   0.26485704  0.95656780  0.28162957
   0.27359259  0.19827062  0.28053074
   0.43467345  0.28991677  0.18623233
   0.50684221  0.20056700  0.28244009
   0.01078266  0.45490242  0.28376072
   0.18800216  0.28679926  0.46869352
   0.84687918  0.86486750  0.37397768
   0.09613264  0.37987726  0.37755474
   0.76747206  0.94819251  0.28212250
   0.42830439  0.28152575  0.46797465
   0.18685885  0.53415839  0.46430042
   0.67955607  0.28654550  0.46507123
   0.18442594  0.54143652  0.18855384
   0.52183611  0.44146141  0.27854631
   0.09254682  0.60503139  0.37399030
   0.84935805  0.61243661  0.37518055
   0.77015979  0.69747487  0.28267194
   0.68243432  0.53023993  0.18792743
   0.76995564  0.45222009  0.28277687
   0.60219091  0.36482370  0.37601759
   0.42022634  0.53023318  0.46966115
   0.76466328  0.20304504  0.28212528
   0.85939447  0.61931786  0.08945355
   0.10172581  0.61948493  0.09757686
   0.43413471  0.53589320  0.18726337
   0.85319092  0.37976595  0.37545442
   0.59731635  0.12828774  0.37412148
   0.59595727  0.11332925  0.09432732
   0.09539234  0.85706994  0.09144586
   0.34268852  0.11409184  0.09177448
   0.84794708  0.11840646  0.37582868
   0.85829658  0.87187979  0.09136503
   0.34335680  0.35873545  0.09074482
Direct configuration=     5
   0.59491670  0.87091088  0.09532310
   0.93873251  0.30246596  0.46899841
   0.68078928  0.04397023  0.47110225
   0.00903437  0.19803897  0.28535585
   0.61162204  0.87472758  0.37314071
   0.27440071  0.45279078  0.28165027
   0.34285793  0.61294767  0.09647612
   0.60638766  0.61715153  0.09367267
   0.93910418  0.04137720  0.47433513
   0.34464596  0.86751731  0.37513634
   0.19072252  0.28844948  0.18357438
   0.93138362  0.77126084  0.18437801
   0.93019564  0.02912708  0.18587893
   0.08784431  0.85617018  0.37122312
   0.10026599  0.11872247  0.37726644
   0.92965903  0.77810969  0.47450693
   0.59108173  0.35998575  0.09243855
   0.35060174  0.36654172  0.37703821
   0.18210710  0.77286449  0.47327201
   0.43147937  0.04603064  0.47124465
   0.93597349  0.29025775  0.19048387
   0.67504380  0.78294369  0.47554734
   0.67922292  0.28325972  0.19056112
   0.52663668  0.95682660  0.27992422
   0.26090059  0.70091161  0.27951898
   0.67816893  0.52319704  0.47247698
   0.60232608  0.61534718  0.37010773
   0.85148984  0.12062109  0.09258714
   0.43431841  0.02463282  0.18735144
   0.19039991  0.02973983  0.18567040
   0.85206989  0.37522601  0.09388359
   0.35694911  0.12165350  0.37218975
   0.10285469  0.36819155  0.09352952
   0.93077564  0.52933756  0.46590924
   0.52287135  0.69934957  0.27943172
   0.67724655  0.77635350  0.18806043
   0.42995674  0.77723423  0.18948955
   0.93900317  0.53624495  0.18964124
   0.42571360  0.77297678  0.46780769
   0.18254830  0.77449380  0.18896229
   0.01298968  0.94582520  0.28052366
   0.34153355  0.61455869  0.37716772
   0.68035929  0.02843972  0.18892144
   0.34204928  0.87602283  0.09189088
   0.18861673  0.04753317  0.47198875
   0.00881087  0.69305509  0.28094510
   0.10515134  0.11003575  0.09072500
   0.26426476  0.95664686  0.28154026
   0.27365756  0.19866996  0.28048900
   0.43467345  0.28991677  0.18623233
   0.50713006  0.20169818  0.28268227
   0.01002513  0.45408627  0.28415966
   0.18949534  0.28762993  0.46855179
   0.84701206  0.86546460  0.37335970
   0.09543110  0.37984919  0.37749303
   0.76827661  0.94712948  0.28214230
   0.42768899  0.28105964  0.46764144
   0.18761631  0.53437095  0.46384010
   0.67940795  0.28594436  0.46448357
   0.18442594  0.54143652  0.18855384
   0.52236616  0.44157679  0.27834412
   0.09122728  0.60350821  0.37431864
   0.84933433  0.61159719  0.37490837
   0.77031626  0.69851251  0.28252011
   0.68243432  0.53023993  0.18792743
   0.76984115  0.45280862  0.28302726
   0.60203730  0.36360146  0.37604438
   0.41872448  0.52976720  0.46958592
   0.76435970  0.20288077  0.28228582
   0.85939447  0.61931786  0.08945355
   0.10172581  0.61948493  0.09757686
   0.43413471  0.53589320  0.18726337
   0.85393911  0.38014948  0.37571546
   0.59842547  0.12996814  0.37432782
   0.59595727  0.11332925  0.09432732
   0.09539234  0.85706994  0.09144586
   0.34268852  0.11409184  0.09177448
   0.84769629  0.11834842  0.37588377
   0.85829658  0.87187979  0.09136503
   0.34335680  0.35873545  0.09074482
Direct configuration=     6
   0.59491670  0.87091088  0.09532310
   0.93923182  0.29931656  0.46928041
   0.68213693  0.04440971  0.47134921
   0.00975841  0.19966464  0.28497100
   0.60867307  0.87306495  0.37369752
   0.27473892  0.45358657  0.28148005
   0.34285793  0.61294767  0.09647612
   0.60638766  0.61715153  0.09367267
   0.93955073  0.04126145  0.47459084
   0.34758451  0.86856310  0.37490624
   0.19072252  0.28844948  0.18357438
   0.93138362  0.77126084  0.18437801
   0.93019564  0.02912708  0.18587893
   0.08776171  0.85573009  0.37182261
   0.09849975  0.11592715  0.37731468
   0.93085135  0.77994328  0.47400946
   0.59108173  0.35998575  0.09243855
   0.35316228  0.36754899  0.37695186
   0.18247159  0.77244523  0.47369347
   0.42991399  0.04604304  0.47184811
   0.93597349  0.29025775  0.19048387
   0.67293390  0.77986730  0.47548561
   0.67922292  0.28325972  0.19056112
   0.52557928  0.95580740  0.28084558
   0.26048500  0.70037922  0.28079184
   0.67573795  0.52319842  0.47233706
   0.60398560  0.61454805  0.37103941
   0.85148984  0.12062109  0.09258714
   0.43431841  0.02463282  0.18735144
   0.19039991  0.02973983  0.18567040
   0.85206989  0.37522601  0.09388359
   0.35680611  0.12244461  0.37212268
   0.10285469  0.36819155  0.09352952
   0.93287177  0.53249870  0.46488906
   0.52534785  0.69909460  0.27859686
   0.67724655  0.77635350  0.18806043
   0.42995674  0.77723423  0.18948955
   0.93900317  0.53624495  0.18964124
   0.42622211  0.77270861  0.46741535
   0.18254830  0.77449380  0.18896229
   0.01019437  0.94460000  0.28047277
   0.34295397  0.61498763  0.37743037
   0.68035929  0.02843972  0.18892144
   0.34204928  0.87602283  0.09189088
   0.18883207  0.04800081  0.47079365
   0.00650049  0.69225797  0.28070642
   0.10515134  0.11003575  0.09072500
   0.26325482  0.95675927  0.28184425
   0.27318313  0.19902160  0.28055417
   0.43467345  0.28991677  0.18623233
   0.50828961  0.20402149  0.28303835
   0.00787325  0.45215489  0.28501661
   0.19328049  0.29070760  0.46848516
   0.84952506  0.86672906  0.37204694
   0.09418739  0.37798213  0.37679619
   0.77035323  0.94439853  0.28155048
   0.42618983  0.27968960  0.46668108
   0.18911909  0.53500269  0.46302133
   0.67931596  0.28633182  0.46295095
   0.18442594  0.54143652  0.18855384
   0.52436283  0.44247978  0.27764404
   0.08957141  0.60332859  0.37481977
   0.84863241  0.60921036  0.37409426
   0.77117935  0.70191685  0.28167709
   0.68243432  0.53023993  0.18792743
   0.76970478  0.45388104  0.28353450
   0.60073324  0.36148522  0.37623326
   0.41536089  0.52837280  0.46930103
   0.76416089  0.20360547  0.28257418
   0.85939447  0.61931786  0.08945355
   0.10172581  0.61948493  0.09757686
   0.43413471  0.53589320  0.18726337
   0.85444103  0.37955644  0.37583046
   0.60097815  0.13201949  0.37462739
   0.59595727  0.11332925  0.09432732
   0.09539234  0.85706994  0.09144586
   0.34268852  0.11409184  0.09177448
   0.84793702  0.11928664  0.37655663
   0.85829658  0.87187979  0.09136503
   0.34335680  0.35873545  0.09074482
Direct configuration=     7
   0.59491670  0.87091088  0.09532310
   0.93943711  0.29802175  0.46939635
   0.68269098  0.04459039  0.47145074
   0.01005608  0.20033300  0.28481278
   0.60746065  0.87238139  0.37392644
   0.27487797  0.45391374  0.28141007
   0.34285793  0.61294767  0.09647612
   0.60638766  0.61715153  0.09367267
   0.93973432  0.04121385  0.47469597
   0.34879263  0.86899306  0.37481164
   0.19072252  0.28844948  0.18357438
   0.93138362  0.77126084  0.18437801
   0.93019564  0.02912708  0.18587893
   0.08772775  0.85554916  0.37206908
   0.09777359  0.11477792  0.37733451
   0.93134155  0.78069713  0.47380493
   0.59108173  0.35998575  0.09243855
   0.35421500  0.36796311  0.37691635
   0.18262144  0.77227286  0.47386674
   0.42927042  0.04604814  0.47209622
   0.93597349  0.29025775  0.19048387
   0.67206646  0.77860250  0.47546023
   0.67922292  0.28325972  0.19056112
   0.52514456  0.95538837  0.28122438
   0.26031415  0.70016034  0.28131515
   0.67473850  0.52319899  0.47227953
   0.60466787  0.61421951  0.37142245
   0.85148984  0.12062109  0.09258714
   0.43431841  0.02463282  0.18735144
   0.19039991  0.02973983  0.18567040
   0.85206989  0.37522601  0.09388359
   0.35674732  0.12276986  0.37209510
   0.10285469  0.36819155  0.09352952
   0.93373355  0.53379833  0.46446963
   0.52636602  0.69898978  0.27825363
   0.67724655  0.77635350  0.18806043
   0.42995674  0.77723423  0.18948955
   0.93900317  0.53624495  0.18964124
   0.42643117  0.77259836  0.46725405
   0.18254830  0.77449380  0.18896229
   0.00904513  0.94409628  0.28045185
   0.34353795  0.61516398  0.37753835
   0.68035929  0.02843972  0.18892144
   0.34204928  0.87602283  0.09189088
   0.18892061  0.04819307  0.47030231
   0.00555062  0.69193025  0.28060829
   0.10515134  0.11003575  0.09072500
   0.26283960  0.95680549  0.28196923
   0.27298808  0.19916617  0.28058096
   0.43467345  0.28991677  0.18623233
   0.50876634  0.20497667  0.28318474
   0.00698854  0.45136084  0.28536893
   0.19483668  0.29197293  0.46845777
   0.85055823  0.86724891  0.37150723
   0.09367606  0.37721452  0.37650971
   0.77120698  0.94327576  0.28130717
   0.42557349  0.27912633  0.46628625
   0.18973692  0.53526242  0.46268471
   0.67927814  0.28649111  0.46232084
   0.18442594  0.54143652  0.18855384
   0.52518371  0.44285103  0.27735622
   0.08889063  0.60325475  0.37502580
   0.84834383  0.60822907  0.37375955
   0.77153420  0.70331647  0.28133050
   0.68243432  0.53023993  0.18792743
   0.76964871  0.45432195  0.28374304
   0.60019710  0.36061517  0.37631091
   0.41397802  0.52779952  0.46918390
   0.76407916  0.20390342  0.28269273
   0.85939447  0.61931786  0.08945355
   0.10172581  0.61948493  0.09757686
   0.43413471  0.53589320  0.18726337
   0.85464739  0.37931263  0.37587774
   0.60202764  0.13286286  0.37475056
   0.59595727  0.11332925  0.09432732
   0.09539234  0.85706994  0.09144586
   0.34268852  0.11409184  0.09177448
   0.84803600  0.11967237  0.37683326
   0.85829658  0.87187979  0.09136503
   0.34335680  0.35873545  0.09074482
Direct configuration=     8
   0.59491670  0.87091088  0.09532310
   0.94154001  0.29817051  0.46966772
   0.68237240  0.04307433  0.47166202
   0.00997532  0.19960104  0.28525612
   0.60806406  0.87109097  0.37418095
   0.27534621  0.45535472  0.28145305
   0.34285793  0.61294767  0.09647612
   0.60638766  0.61715153  0.09367267
   0.93974820  0.04134084  0.47494343
   0.34963806  0.87066291  0.37554592
   0.19072252  0.28844948  0.18357438
   0.93138362  0.77126084  0.18437801
   0.93019564  0.02912708  0.18587893
   0.08866221  0.85496637  0.37181487
   0.09874835  0.11588742  0.37639727
   0.93194286  0.78117138  0.47328181
   0.59108173  0.35998575  0.09243855
   0.35401112  0.36793405  0.37600261
   0.18292169  0.77361255  0.47396055
   0.42890090  0.04433554  0.47222835
   0.93597349  0.29025775  0.19048387
   0.67126239  0.77811819  0.47522481
   0.67922292  0.28325972  0.19056112
   0.52535287  0.95567279  0.28122561
   0.25870369  0.69861509  0.28148857
   0.67378068  0.52251808  0.47208238
   0.60612361  0.61489174  0.37164009
   0.85148984  0.12062109  0.09258714
   0.43431841  0.02463282  0.18735144
   0.19039991  0.02973983  0.18567040
   0.85206989  0.37522601  0.09388359
   0.35596641  0.12202967  0.37199370
   0.10285469  0.36819155  0.09352952
   0.93394818  0.53446051  0.46390944
   0.52723596  0.69870537  0.27821159
   0.67724655  0.77635350  0.18806043
   0.42995674  0.77723423  0.18948955
   0.93900317  0.53624495  0.18964124
   0.42721962  0.77310718  0.46695959
   0.18254830  0.77449380  0.18896229
   0.00983832  0.94366998  0.28086646
   0.34476074  0.61555298  0.37714186
   0.68035929  0.02843972  0.18892144
   0.34204928  0.87602283  0.09189088
   0.18853738  0.04740348  0.46964061
   0.00550593  0.69152032  0.28076489
   0.10515134  0.11003575  0.09072500
   0.26229605  0.95663865  0.28243864
   0.27254186  0.19926306  0.28075365
   0.43467345  0.28991677  0.18623233
   0.50959586  0.20569852  0.28321241
   0.00537080  0.45092095  0.28569069
   0.19593969  0.29305506  0.46847668
   0.84999199  0.86702386  0.37083539
   0.09353471  0.37568574  0.37613271
   0.77032526  0.94209946  0.28117288
   0.42530922  0.27864003  0.46574879
   0.18900657  0.53470179  0.46233888
   0.67990637  0.28740706  0.46178451
   0.18442594  0.54143652  0.18855384
   0.52675520  0.44465997  0.27676319
   0.08938716  0.60466731  0.37505834
   0.84810552  0.60712948  0.37314462
   0.77138156  0.70470093  0.28094291
   0.68243432  0.53023993  0.18792743
   0.76952506  0.45466557  0.28389162
   0.59913029  0.36005077  0.37622540
   0.41311948  0.52744219  0.46911067
   0.76375249  0.20418636  0.28280575
   0.85939447  0.61931786  0.08945355
   0.10172581  0.61948493  0.09757686
   0.43413471  0.53589320  0.18726337
   0.85456006  0.37783430  0.37590149
   0.60337843  0.13241899  0.37480119
   0.59595727  0.11332925  0.09432732
   0.09539234  0.85706994  0.09144586
   0.34268852  0.11409184  0.09177448
   0.84784892  0.11955392  0.37723540
   0.85829658  0.87187979  0.09136503
   0.34335680  0.35873545  0.09074482
Direct configuration=     9
   0.59491670  0.87091088  0.09532310
   0.94233195  0.29822653  0.46976992
   0.68225243  0.04250340  0.47174158
   0.00994490  0.19932538  0.28542307
   0.60829129  0.87060501  0.37427680
   0.27552255  0.45589738  0.28146923
   0.34285793  0.61294767  0.09647612
   0.60638766  0.61715153  0.09367267
   0.93975343  0.04138866  0.47503662
   0.34995644  0.87129176  0.37582245
   0.19072252  0.28844948  0.18357438
   0.93138362  0.77126084  0.18437801
   0.93019564  0.02912708  0.18587893
   0.08901412  0.85474690  0.37171914
   0.09911544  0.11630525  0.37604431
   0.93216931  0.78134998  0.47308481
   0.59108173  0.35998575  0.09243855
   0.35393434  0.36792311  0.37565850
   0.18303477  0.77411707  0.47399588
   0.42876174  0.04369059  0.47227811
   0.93597349  0.29025775  0.19048387
   0.67095959  0.77793580  0.47513615
   0.67922292  0.28325972  0.19056112
   0.52543132  0.95577989  0.28122607
   0.25809720  0.69803317  0.28155387
   0.67341997  0.52226165  0.47200813
   0.60667183  0.61514490  0.37172205
   0.85148984  0.12062109  0.09258714
   0.43431841  0.02463282  0.18735144
   0.19039991  0.02973983  0.18567040
   0.85206989  0.37522601  0.09388359
   0.35567233  0.12175092  0.37195551
   0.10285469  0.36819155  0.09352952
   0.93402901  0.53470988  0.46369847
   0.52756357  0.69859827  0.27819576
   0.67724655  0.77635350  0.18806043
   0.42995674  0.77723423  0.18948955
   0.93900317  0.53624495  0.18964124
   0.42751654  0.77329880  0.46684870
   0.18254830  0.77449380  0.18896229
   0.01013703  0.94350943  0.28102259
   0.34522124  0.61569948  0.37699255
   0.68035929  0.02843972  0.18892144
   0.34204928  0.87602283  0.09189088
   0.18839306  0.04710613  0.46939142
   0.00548910  0.69136594  0.28082387
   0.10515134  0.11003575  0.09072500
   0.26209136  0.95657582  0.28261541
   0.27237382  0.19929955  0.28081868
   0.43467345  0.28991677  0.18623233
   0.50990825  0.20597036  0.28322283
   0.00476157  0.45075529  0.28581186
   0.19635508  0.29346258  0.46848380
   0.84977875  0.86693910  0.37058238
   0.09348148  0.37511002  0.37599074
   0.76999322  0.94165647  0.28112231
   0.42520970  0.27845689  0.46554639
   0.18873153  0.53449067  0.46220865
   0.68014296  0.28775200  0.46158253
   0.18442594  0.54143652  0.18855384
   0.52734700  0.44534120  0.27653986
   0.08957415  0.60519927  0.37507059
   0.84801578  0.60671539  0.37291304
   0.77132408  0.70522230  0.28079695
   0.68243432  0.53023993  0.18792743
   0.76947849  0.45479497  0.28394757
   0.59872854  0.35983822  0.37619320
   0.41279616  0.52730763  0.46908310
   0.76362947  0.20429291  0.28284831
   0.85939447  0.61931786  0.08945355
   0.10172581  0.61948493  0.09757686
   0.43413471  0.53589320  0.18726337
   0.85452717  0.37727758  0.37591043
   0.60388713  0.13225183  0.37482026
   0.59595727  0.11332925  0.09432732
   0.09539234  0.85706994  0.09144586
   0.34268852  0.11409184  0.09177448
   0.84777847  0.11950932  0.37738684
   0.85829658  0.87187979  0.09136503
   0.34335680  0.35873545  0.09074482
Direct configuration=    10
   0.59491670  0.87091088  0.09532310
   0.94337616  0.29927847  0.46995427
   0.68227228  0.04232756  0.47200714
   0.00855196  0.19881063  0.28495239
   0.60876074  0.87061161  0.37384595
   0.27531275  0.45610234  0.28114610
   0.34285793  0.61294767  0.09647612
   0.60638766  0.61715153  0.09367267
   0.94071860  0.04144159  0.47487355
   0.35097104  0.87145493  0.37595474
   0.19072252  0.28844948  0.18357438
   0.93138362  0.77126084  0.18437801
   0.93019564  0.02912708  0.18587893
   0.08881816  0.85499534  0.37147201
   0.09977317  0.11591564  0.37602564
   0.93169108  0.78127334  0.47238739
   0.59108173  0.35998575  0.09243855
   0.35434328  0.36843559  0.37498711
   0.18317024  0.77482958  0.47416253
   0.42966700  0.04338298  0.47249606
   0.93597349  0.29025775  0.19048387
   0.67136650  0.77772114  0.47515456
   0.67922292  0.28325972  0.19056112
   0.52526806  0.95532048  0.28139397
   0.25742326  0.69861683  0.28166731
   0.67323530  0.52190673  0.47189103
   0.60733533  0.61475109  0.37150427
   0.85148984  0.12062109  0.09258714
   0.43431841  0.02463282  0.18735144
   0.19039991  0.02973983  0.18567040
   0.85206989  0.37522601  0.09388359
   0.35551337  0.12140206  0.37187239
   0.10285469  0.36819155  0.09352952
   0.93372861  0.53415445  0.46326922
   0.52751517  0.69848369  0.27841456
   0.67724655  0.77635350  0.18806043
   0.42995674  0.77723423  0.18948955
   0.93900317  0.53624495  0.18964124
   0.42750143  0.77345861  0.46665565
   0.18254830  0.77449380  0.18896229
   0.01136007  0.94332927  0.28123805
   0.34599949  0.61621117  0.37656602
   0.68035929  0.02843972  0.18892144
   0.34204928  0.87602283  0.09189088
   0.18783814  0.04623775  0.46873064
   0.00558728  0.69099328  0.28090270
   0.10515134  0.11003575  0.09072500
   0.26222986  0.95644254  0.28283630
   0.27247627  0.19950025  0.28075262
   0.43467345  0.28991677  0.18623233
   0.51041791  0.20634110  0.28322252
   0.00340165  0.45032804  0.28597851
   0.19671493  0.29336388  0.46831611
   0.85004073  0.86673827  0.37022110
   0.09368656  0.37489761  0.37584374
   0.76896994  0.94150419  0.28099042