 vasp.5.4.4.18Apr17-6-g9f103f2a35 (build Jun 19 2019 11:58:18) complex          
  
 executed on             LinuxIFC date 2022.03.01  15:56:03
 running on   32 total cores
 distrk:  each k-point on   32 cores,    1 groups
 distr:  one band on NCORES_PER_BAND=   8 cores,    4 groups


--------------------------------------------------------------------------------------------------------


 INCAR:
 POTCAR:    PAW_PBE Pt 04Feb2005                  
 POTCAR:    PAW_PBE Pd 04Jan2005                  
 POTCAR:    PAW_PBE Ni 02Aug2007                  
 POTCAR:    PAW_PBE Co 02Aug2007                  
 POTCAR:    PAW_PBE Fe 06Sep2000                  
 POTCAR:    PAW_PBE Pt 04Feb2005                  
   VRHFIN =Pt: s1d9                                                             
   LEXCH  = PE                                                                  
   EATOM  =   729.1176 eV,   53.5886 Ry                                         
                                                                                
   TITEL  = PAW_PBE Pt 04Feb2005                                                
   LULTRA =        F    use ultrasoft PP ?                                      
   IUNSCR =        1    unscreen: 0-lin 1-nonlin 2-no                           
   RPACOR =    2.330    partial core radius                                     
   POMASS =  195.080; ZVAL   =   10.000    mass and valenz                      
   RCORE  =    2.600    outmost cutoff radius                                   
   RWIGS  =    2.750; RWIGS  =    1.455    wigner-seitz radius (au A)           
   ENMAX  =  230.283; ENMIN  =  172.712 eV                                      
   ICORE  =        3    local potential                                         
   LCOR   =        T    correct aug charges                                     
   LPAW   =        T    paw PP                                                  
   EAUG   =  358.966                                                            
   DEXC   =    0.000                                                            
   RMAX   =    2.658    core radius for proj-oper                               
   RAUG   =    1.300    factor for augmentation sphere                          
   RDEP   =    2.761    radius for radial grids                                 
   RDEPT  =    2.203    core radius for aug-charge                              
                                                                                
   Atomic configuration                                                         
   16 entries                                                                   
     n  l   j            E        occ.                                          
     1  0  0.50    -78401.1885   2.0000                                         
     2  0  0.50    -13770.7750   2.0000                                         
     2  1  1.50    -11931.0468   6.0000                                         
     3  0  0.50     -3234.7234   2.0000                                         
     3  1  1.50     -2699.2216   6.0000                                         
     3  2  2.50     -2119.5714  10.0000                                         
     4  0  0.50      -695.1528   2.0000                                         
     4  1  1.50      -519.6034   6.0000                                         
     4  2  2.50      -306.6786  10.0000                                         
     4  3  3.50       -70.1041  14.0000                                         
     5  0  0.50      -101.7747   2.0000                                         
     5  1  1.50       -55.9873   6.0000                                         
     5  2  2.50        -6.1423   9.0000                                         
     6  0  0.50        -5.6573   1.0000                                         
     6  1  1.50        -6.8029   0.0000                                         
     5  3  2.50        -1.3606   0.0000                                         
   Description                                                                  
     l       E           TYP  RCUT    TYP  RCUT                                 
     2     -6.1423404     23  2.500                                             
     2     -7.5029230     23  2.500                                             
     0     -5.6573207     23  2.500                                             
     0      0.7416693     23  2.500                                             
     1     -2.7211652     23  2.600                                             
     1     20.4087390     23  2.600                                             
     3     -1.3605826     23  2.500                                             
  local pseudopotential read in
  partial core-charges read in
  partial kinetic energy density read in
  atomic valenz-charges read in
  non local Contribution for L=           2  read in
    real space projection operators read in
  non local Contribution for L=           2  read in
    real space projection operators read in
  non local Contribution for L=           0  read in
    real space projection operators read in
  non local Contribution for L=           0  read in
    real space projection operators read in
  non local Contribution for L=           1  read in
    real space projection operators read in
  non local Contribution for L=           1  read in
    real space projection operators read in
    PAW grid and wavefunctions read in
 
   number of l-projection  operators is LMAX  =           6
   number of lm-projection operators is LMMAX =          18
 
 POTCAR:    PAW_PBE Pd 04Jan2005                  
   VRHFIN =Pd : s1 d9                                                           
   LEXCH  = PE                                                                  
   EATOM  =   809.7530 eV,   59.5152 Ry                                         
                                                                                
   TITEL  = PAW_PBE Pd 04Jan2005                                                
   LULTRA =        F    use ultrasoft PP ?                                      
   IUNSCR =        1    unscreen: 0-lin 1-nonlin 2-no                           
   RPACOR =    2.000    partial core radius                                     
   POMASS =  106.420; ZVAL   =   10.000    mass and valenz                      
   RCORE  =    2.600    outmost cutoff radius                                   
   RWIGS  =    2.710; RWIGS  =    1.434    wigner-seitz radius (au A)           
   ENMAX  =  250.925; ENMIN  =  188.194 eV                                      
   ICORE  =        3    local potential                                         
   LCOR   =        T    correct aug charges                                     
   LPAW   =        T    paw PP                                                  
   EAUG   =  416.230                                                            
   DEXC   =    0.000                                                            
   RMAX   =    2.653    core radius for proj-oper                               
   RAUG   =    1.300    factor for augmentation sphere                          
   RDEP   =    2.734    radius for radial grids                                 
   RDEPT  =    2.103    core radius for aug-charge                              
                                                                                
   Atomic configuration                                                         
   12 entries                                                                   
     n  l   j            E        occ.                                          
     1  0  0.50    -24164.6631   2.0000                                         
     2  0  0.50     -3530.9218   2.0000                                         
     2  1  1.50     -3165.6822   6.0000                                         
     3  0  0.50      -639.4577   2.0000                                         
     3  1  1.50      -519.4532   6.0000                                         
     3  2  2.50      -328.9757  10.0000                                         
     4  0  0.50       -88.7014   2.0000                                         
     4  1  1.50       -54.4540   6.0000                                         
     4  2  2.50        -6.6878   9.0000                                         
     5  0  0.50        -4.3543   1.0000                                         
     5  1  0.50        -1.3606   0.0000                                         
     4  3  2.50        -1.3606   0.0000                                         
   Description                                                                  
     l       E           TYP  RCUT    TYP  RCUT                                 
     2     -6.6878251     23  2.400                                             
     2     -8.0484077     23  2.400                                             
     0     -4.3542939     23  2.400                                             
     0      4.3406793     23  2.400                                             
     1     -4.0817478     23  2.600                                             
     1     15.8380318     23  2.600                                             
     3     -4.0817478     23  2.400                                             
  local pseudopotential read in
  partial core-charges read in
  partial kinetic energy density read in
  atomic valenz-charges read in
  non local Contribution for L=           2  read in
    real space projection operators read in
  non local Contribution for L=           2  read in
    real space projection operators read in
  non local Contribution for L=           0  read in
    real space projection operators read in
  non local Contribution for L=           0  read in
    real space projection operators read in
  non local Contribution for L=           1  read in
    real space projection operators read in
  non local Contribution for L=           1  read in
    real space projection operators read in
    PAW grid and wavefunctions read in
 
   number of l-projection  operators is LMAX  =           6
   number of lm-projection operators is LMMAX =          18
 
 POTCAR:    PAW_PBE Ni 02Aug2007                  
   VRHFIN =Ni:                                                                  
   LEXCH  = PE                                                                  
   EATOM  =  1077.6739 eV,   79.2068 Ry                                         
                                                                                
   TITEL  = PAW_PBE Ni 02Aug2007                                                
   LULTRA =        F    use ultrasoft PP ?                                      
   IUNSCR =        1    unscreen: 0-lin 1-nonlin 2-no                           
   RPACOR =    2.000    partial core radius                                     
   POMASS =   58.690; ZVAL   =   10.000    mass and valenz                      
   RCORE  =    2.300    outmost cutoff radius                                   
   RWIGS  =    2.430; RWIGS  =    1.286    wigner-seitz radius (au A)           
   ENMAX  =  269.532; ENMIN  =  202.149 eV                                      
   RCLOC  =    1.201    cutoff for local pot                                    
   LCOR   =        T    correct aug charges                                     
   LPAW   =        T    paw PP                                                  
   EAUG   =  544.565                                                            
   DEXC   =    0.000                                                            
   RMAX   =    2.357    core radius for proj-oper                               
   RAUG   =    1.300    factor for augmentation sphere                          
   RDEP   =    2.390    radius for radial grids                                 
   RDEPT  =    1.838    core radius for aug-charge                              
                                                                                
   Atomic configuration                                                         
    9 entries                                                                   
     n  l   j            E        occ.                                          
     1  0  0.50     -8206.4253   2.0000                                         
     2  0  0.50      -976.1748   2.0000                                         
     2  1  1.50      -839.0571   6.0000                                         
     3  0  0.50      -105.9991   2.0000                                         
     3  1  1.50       -66.4603   6.0000                                         
     3  2  2.50        -4.6458   9.0000                                         
     4  0  0.50        -4.4926   1.0000                                         
     4  1  1.50        -4.0817   0.0000                                         
     4  3  2.50        -1.3606   0.0000                                         
   Description                                                                  
     l       E           TYP  RCUT    TYP  RCUT                                 
     2     -4.6457903     23  2.300                                             
     2     -6.0063729     23  2.300                                             
     0     -4.4925590     23  2.300                                             
     0      5.0102601     23  2.300                                             
     1     -2.7211652     23  2.300                                             
     1     16.5183231     23  2.300                                             
  local pseudopotential read in
  partial core-charges read in
  partial kinetic energy density read in
  atomic valenz-charges read in
  non local Contribution for L=           2  read in
    real space projection operators read in
  non local Contribution for L=           2  read in
    real space projection operators read in
  non local Contribution for L=           0  read in
    real space projection operators read in
  non local Contribution for L=           0  read in
    real space projection operators read in
  non local Contribution for L=           1  read in
    real space projection operators read in
  non local Contribution for L=           1  read in
    real space projection operators read in
    PAW grid and wavefunctions read in
 
   number of l-projection  operators is LMAX  =           6
   number of lm-projection operators is LMMAX =          18
 
 POTCAR:    PAW_PBE Co 02Aug2007                  
   VRHFIN =Co: d8 s1                                                            
   LEXCH  = PE                                                                  
   EATOM  =   813.3670 eV,   59.7808 Ry                                         
                                                                                
   TITEL  = PAW_PBE Co 02Aug2007                                                
   LULTRA =        F    use ultrasoft PP ?                                      
   IUNSCR =        1    unscreen: 0-lin 1-nonlin 2-no                           
   RPACOR =    2.000    partial core radius                                     
   POMASS =   58.933; ZVAL   =    9.000    mass and valenz                      
   RCORE  =    2.300    outmost cutoff radius                                   
   RWIGS  =    2.460; RWIGS  =    1.302    wigner-seitz radius (au A)           
   ENMAX  =  267.968; ENMIN  =  200.976 eV                                      
   RCLOC  =    1.203    cutoff for local pot                                    
   LCOR   =        T    correct aug charges                                     
   LPAW   =        T    paw PP                                                  
   EAUG   =  477.818                                                            
   DEXC   =    0.000                                                            
   RMAX   =    2.360    core radius for proj-oper                               
   RAUG   =    1.300    factor for augmentation sphere                          
   RDEP   =    2.393    radius for radial grids                                 
   RDEPT  =    1.864    core radius for aug-charge                              
                                                                                
   Atomic configuration                                                         
    9 entries                                                                   
     n  l   j            E        occ.                                          
     1  0  0.50     -7587.6674   2.0000                                         
     2  0  0.50      -893.6084   2.0000                                         
     2  1  1.50      -764.5805   6.0000                                         
     3  0  0.50       -97.5973   2.0000                                         
     3  1  1.50       -60.9648   6.0000                                         
     3  2  2.50        -4.2382   8.0000                                         
     4  0  0.50        -4.3746   1.0000                                         
     4  1  1.50        -4.0817   0.0000                                         
     4  3  2.50        -1.3606   0.0000                                         
   Description                                                                  
     l       E           TYP  RCUT    TYP  RCUT                                 
     2     -4.2382362     23  2.300                                             
     2     -5.5988188     23  2.300                                             
     0     -4.3745797     23  2.300                                             
     0      5.7660125     23  2.300                                             
     1     -2.7211652     23  2.300                                             
     1     16.9860234     23  2.300                                             
  local pseudopotential read in
  partial core-charges read in
  partial kinetic energy density read in
  atomic valenz-charges read in
  non local Contribution for L=           2  read in
    real space projection operators read in
  non local Contribution for L=           2  read in
    real space projection operators read in
  non local Contribution for L=           0  read in
    real space projection operators read in
  non local Contribution for L=           0  read in
    real space projection operators read in
  non local Contribution for L=           1  read in
    real space projection operators read in
  non local Contribution for L=           1  read in
    real space projection operators read in
    PAW grid and wavefunctions read in
 
   number of l-projection  operators is LMAX  =           6
   number of lm-projection operators is LMMAX =          18
 
 POTCAR:    PAW_PBE Fe 06Sep2000                  
   VRHFIN =Fe:  d7 s1                                                           
   LEXCH  = PE                                                                  
   EATOM  =   594.3153 eV,   43.6809 Ry                                         
                                                                                
   TITEL  = PAW_PBE Fe 06Sep2000                                                
   LULTRA =        F    use ultrasoft PP ?                                      
   IUNSCR =        1    unscreen: 0-lin 1-nonlin 2-no                           
   RPACOR =    2.000    partial core radius                                     
   POMASS =   55.847; ZVAL   =    8.000    mass and valenz                      
   RCORE  =    2.300    outmost cutoff radius                                   
   RWIGS  =    2.460; RWIGS  =    1.302    wigner-seitz radius (au A)           
   ENMAX  =  267.882; ENMIN  =  200.911 eV                                      
   RCLOC  =    1.701    cutoff for local pot                                    
   LCOR   =        T    correct aug charges                                     
   LPAW   =        T    paw PP                                                  
   EAUG   =  511.368                                                            
   DEXC   =    0.000                                                            
   RMAX   =    2.356    core radius for proj-oper                               
   RAUG   =    1.300    factor for augmentation sphere                          
   RDEP   =    2.442    radius for radial grids                                 
   RDEPT  =    1.890    core radius for aug-charge                              
                                                                                
   Atomic configuration                                                         
    9 entries                                                                   
     n  l   j            E        occ.                                          
     1  0  0.50     -6993.8440   2.0000                                         
     2  0  0.50      -814.6047   2.0000                                         
     2  1  1.50      -693.3689   6.0000                                         
     3  0  0.50       -89.4732   2.0000                                         
     3  1  1.50       -55.6373   6.0000                                         
     3  2  2.50        -3.8151   7.0000                                         
     4  0  0.50        -4.2551   1.0000                                         
     4  1  1.50        -3.4015   0.0000                                         
     4  3  2.50        -1.3606   0.0000                                         
   Description                                                                  
     l       E           TYP  RCUT    TYP  RCUT                                 
     2     -3.8151135     23  2.300                                             
     2     -5.1756961     23  2.300                                             
     0     -4.2550963     23  2.300                                             
     0      7.2035603     23  2.300                                             
     1     -2.7211652     23  2.300                                             
     1     18.4316424     23  2.300                                             
  local pseudopotential read in
  partial core-charges read in
  partial kinetic energy density read in
  atomic valenz-charges read in
  non local Contribution for L=           2  read in
    real space projection operators read in
  non local Contribution for L=           2  read in
    real space projection operators read in
  non local Contribution for L=           0  read in
    real space projection operators read in
  non local Contribution for L=           0  read in
    real space projection operators read in
  non local Contribution for L=           1  read in
    real space projection operators read in
  non local Contribution for L=           1  read in
    real space projection operators read in
    PAW grid and wavefunctions read in
 
   number of l-projection  operators is LMAX  =           6
   number of lm-projection operators is LMMAX =          18
 
 Optimization of the real space projectors (new method)

 maximal supplied QI-value         = 14.36
 optimisation between [QCUT,QGAM] = [ 11.35, 22.84] = [ 36.05,146.02] Ry 
 Optimized for a Real-space Cutoff    1.52 Angstroem

   l    n(q)    QCUT    max X(q) W(low)/X(q) W(high)/X(q)  e(spline) 
   2      9    11.346    66.195    0.18E-03    0.31E-04    0.24E-06
   2      9    11.346    64.643    0.18E-03    0.31E-04    0.25E-06
   0     10    11.346    95.520    0.43E-04    0.40E-05    0.18E-06
   0     10    11.346    63.403    0.42E-04    0.39E-05    0.17E-06
   1     10    11.346    19.961    0.83E-04    0.43E-04    0.12E-06
   1     10    11.346    13.289    0.69E-04    0.37E-04    0.98E-07
 Optimization of the real space projectors (new method)

 maximal supplied QI-value         = 14.36
 optimisation between [QCUT,QGAM] = [ 11.35, 22.84] = [ 36.05,146.02] Ry 
 Optimized for a Real-space Cutoff    1.47 Angstroem

   l    n(q)    QCUT    max X(q) W(low)/X(q) W(high)/X(q)  e(spline) 
   2      9    11.346    59.108    0.74E-04    0.81E-04    0.26E-06
   2      9    11.346    58.101    0.74E-04    0.83E-04    0.27E-06
   0     10    11.346   102.235    0.26E-04    0.31E-04    0.16E-06
   0     10    11.346    58.388    0.23E-04    0.29E-04    0.15E-06
   1     10    11.346    22.191    0.23E-03    0.26E-03    0.14E-06
   1     10    11.346    15.590    0.19E-03    0.22E-03    0.12E-06
 Optimization of the real space projectors (new method)

 maximal supplied QI-value         = 16.25
 optimisation between [QCUT,QGAM] = [ 11.38, 22.75] = [ 36.24,144.96] Ry 
 Optimized for a Real-space Cutoff    1.47 Angstroem

   l    n(q)    QCUT    max X(q) W(low)/X(q) W(high)/X(q)  e(spline) 
   2      9    11.376    60.317    0.17E-03    0.16E-04    0.16E-06
   2      9    11.376    55.921    0.17E-03    0.16E-04    0.17E-06
   0     10    11.376    51.690    0.45E-04    0.60E-04    0.21E-06
   0     10    11.376    30.015    0.37E-04    0.55E-04    0.19E-06
   1     10    11.376    18.849    0.83E-04    0.11E-03    0.92E-07
   1     10    11.376    14.624    0.69E-04    0.92E-04    0.82E-07
 Optimization of the real space projectors (new method)

 maximal supplied QI-value         = 16.25
 optimisation between [QCUT,QGAM] = [ 11.38, 22.75] = [ 36.24,144.96] Ry 
 Optimized for a Real-space Cutoff    1.43 Angstroem

   l    n(q)    QCUT    max X(q) W(low)/X(q) W(high)/X(q)  e(spline) 
   2      9    11.376    65.824    0.18E-03    0.28E-04    0.14E-06
   2      9    11.376    61.429    0.18E-03    0.29E-04    0.14E-06
   0     10    11.376    56.174    0.51E-04    0.12E-03    0.20E-06
   0     10    11.376    31.263    0.46E-04    0.11E-03    0.18E-06
   1      9    11.376    19.828    0.23E-03    0.17E-03    0.10E-06
   1      9    11.376    15.139    0.20E-03    0.14E-03    0.89E-07
 Optimization of the real space projectors (new method)

 maximal supplied QI-value         = 16.25
 optimisation between [QCUT,QGAM] = [ 11.38, 22.75] = [ 36.24,144.96] Ry 
 Optimized for a Real-space Cutoff    1.52 Angstroem

   l    n(q)    QCUT    max X(q) W(low)/X(q) W(high)/X(q)  e(spline) 
   2      9    11.376    80.901    0.22E-03    0.86E-04    0.27E-06
   2      9    11.376    75.754    0.23E-03    0.87E-04    0.27E-06
   0     10    11.376    58.752    0.56E-04    0.38E-04    0.25E-06
   0     10    11.376    30.679    0.47E-04    0.35E-04    0.23E-06
   1     10    11.376    17.977    0.50E-04    0.42E-04    0.12E-06
   1     10    11.376    13.559    0.42E-04    0.37E-04    0.11E-06
  PAW_PBE Pt 04Feb2005                  :
 energy of atom  1       EATOM= -729.1176
 kinetic energy error for atom=    0.0039 (will be added to EATOM!!)
  PAW_PBE Pd 04Jan2005                  :
 energy of atom  2       EATOM= -809.7530
 kinetic energy error for atom=    0.0049 (will be added to EATOM!!)
  PAW_PBE Ni 02Aug2007                  :
 energy of atom  3       EATOM=-1077.6739
 kinetic energy error for atom=    0.0030 (will be added to EATOM!!)
  PAW_PBE Co 02Aug2007                  :
 energy of atom  4       EATOM= -813.3670
 kinetic energy error for atom=    0.0028 (will be added to EATOM!!)
  PAW_PBE Fe 06Sep2000                  :
 energy of atom  5       EATOM= -594.3153
 kinetic energy error for atom=    0.0026 (will be added to EATOM!!)
 
 
 POSCAR: Pt   Pd   Ni   Co   Fe                  
  positions in direct lattice
  No initial velocities read in
 exchange correlation table for  LEXCH =        8
   RHO(1)=    0.500       N(1)  =     2000
   RHO(2)=  100.500       N(2)  =     4000
 


--------------------------------------------------------------------------------------------------------


 ion  position               nearest neighbor table
   1  0.933  0.035  0.187-  45 2.55  36 2.57  61 2.59  35 2.60  56 2.60  22 2.62  25 2.62  76 2.63
                            58 2.63  69 2.63  49 2.64   4 2.65
   2  0.937  0.782  0.466-  34 2.40  77 2.49  17 2.53  37 2.58  57 2.59  50 2.61  21 2.62   3 2.64
                            63 2.65
   3  0.931  0.033  0.467-  33 2.59  30 2.60  78 2.60  63 2.61   8 2.62   7 2.62  57 2.62   2 2.64
                            37 2.67
   4  0.841  0.118  0.093-  70 2.50  41 2.56  80 2.57  61 2.58  31 2.58  58 2.62  76 2.62   1 2.65
                            45 2.65
   5  0.683  0.286  0.465-  51 2.51  75 2.52  50 2.54  46 2.54  21 2.55  33 2.57   7 2.58  20 2.59
                            68 2.64
   6  0.344  0.115  0.095-  56 2.56  45 2.56  32 2.57  65 2.59  24 2.59  70 2.62  59 2.63  19 2.64
                             9 2.66
   7  0.933  0.286  0.467-  43 2.50  21 2.51  51 2.55  30 2.56  10 2.56  33 2.58   5 2.58  78 2.59
                             3 2.62
   8  0.107  0.115  0.376-  77 2.51  37 2.53  40 2.55  63 2.56  30 2.60   3 2.62  49 2.62  47 2.67
                            10 2.67  53 2.68  69 2.72  78 2.72
   9  0.440  0.040  0.190-  65 2.51  61 2.54  55 2.54  44 2.56  28 2.57  56 2.61  70 2.61  48 2.64
                             6 2.66  54 2.67  27 2.68  19 2.72
  10  0.102  0.369  0.377-  30 2.52   7 2.56  43 2.59  67 2.59  42 2.59  62 2.60  51 2.62  78 2.62
                            47 2.65  69 2.65   8 2.67  18 2.70
  11  0.344  0.874  0.374-  40 2.53  20 2.55  77 2.57  48 2.57  34 2.63  75 2.63  28 2.63  67 2.64
                            39 2.65  52 2.68  72 2.73  42 2.74
  12  0.600  0.607  0.376-  47 2.43  17 2.46  46 2.49  14 2.53  50 2.53  42 2.57  71 2.57  79 2.62
                            57 2.63  72 2.67  73 2.68  63 2.70
  13  0.346  0.616  0.094-  19 2.56  60 2.58  24 2.59  41 2.60  31 2.61  74 2.62  66 2.65  54 2.67
                            16 2.68
  14  0.515  0.451  0.284-  47 2.49  53 2.50  12 2.53  46 2.55  71 2.56  29 2.57  73 2.58  16 2.59
                            62 2.59  44 2.65  15 2.69  65 2.70
  15  0.677  0.522  0.186-  65 2.53  55 2.57  59 2.59  74 2.61  38 2.64  16 2.64  26 2.64  29 2.66
                            25 2.68  14 2.69  35 2.75  71 2.77
  16  0.428  0.533  0.192-  54 2.54  73 2.54  62 2.55  36 2.57  14 2.59  66 2.61  35 2.62  15 2.64
                            65 2.67  24 2.67  13 2.68  74 2.75
  17  0.841  0.614  0.377-  12 2.46  50 2.51   2 2.53  46 2.58  77 2.60  67 2.61  21 2.62  51 2.62
                            29 2.62  63 2.64  71 2.65  23 2.71
  18  0.022  0.455  0.278-  66 2.48  38 2.51  52 2.52  62 2.53  69 2.56  23 2.59  58 2.59  29 2.65
                            64 2.66  67 2.70  10 2.70  51 2.75
  19  0.350  0.864  0.094-  13 2.56  27 2.60  41 2.61   6 2.64  32 2.64  70 2.65  54 2.69  60 2.69
                             9 2.72
  20  0.432  0.038  0.465-  37 2.48  40 2.51  68 2.52  11 2.55  75 2.56  33 2.59   5 2.59  39 2.61
                            34 2.68
  21  0.934  0.528  0.469-  43 2.49   7 2.51  34 2.54  67 2.54   5 2.55  51 2.59  50 2.60   2 2.62
                            17 2.62
  22  0.768  0.950  0.281-  71 2.51  63 2.53  49 2.58  72 2.59  64 2.60  28 2.60  35 2.61   1 2.62
                            61 2.63  78 2.63  69 2.64  73 2.65
  23  0.023  0.704  0.283-  48 2.54  77 2.58  18 2.59  49 2.59  52 2.60  67 2.60  27 2.65  25 2.68
                            29 2.69  17 2.71  71 2.72  38 2.74
  24  0.349  0.368  0.096-  36 2.58  13 2.59   6 2.59  31 2.61  65 2.61  45 2.65  74 2.66  16 2.67
                            59 2.74
  25  0.933  0.783  0.186-  32 2.55  76 2.62   1 2.62  56 2.63  26 2.64  35 2.65  27 2.66  49 2.67
                            23 2.68  15 2.68  38 2.71  71 2.73
  26  0.846  0.613  0.092-  80 2.54  59 2.55  74 2.56  60 2.58  32 2.60  15 2.64  25 2.64  76 2.65
                            38 2.69
  27  0.187  0.776  0.188-  66 2.58  52 2.58  60 2.58  19 2.60  54 2.63  38 2.64  23 2.65  25 2.66
                             9 2.68  32 2.68  48 2.69  56 2.73
  28  0.512  0.943  0.280-  54 2.52  73 2.53  52 2.54   9 2.57  22 2.60  72 2.62  44 2.62  64 2.62
                            11 2.63  61 2.64  48 2.64  75 2.72
  29  0.761  0.447  0.284-  14 2.57  44 2.57  46 2.58  51 2.58  64 2.59  17 2.62  18 2.65  15 2.66
                            71 2.68  23 2.69  38 2.70  55 2.73
  30  0.180  0.286  0.467-  79 2.50  10 2.52  43 2.55   7 2.56  68 2.57   3 2.60   8 2.60  47 2.68
                            37 2.69
  31  0.094  0.363  0.097-  66 2.48  60 2.51  80 2.52  58 2.52  36 2.52   4 2.58  13 2.61  24 2.61
                            45 2.62
  32  0.095  0.867  0.095-  45 2.54  25 2.55   6 2.57  76 2.60  26 2.60  56 2.62  19 2.64  27 2.68
                            60 2.72
  33  0.682  0.038  0.467-  75 2.56  78 2.57   5 2.57   7 2.58  20 2.59   3 2.59  72 2.63  39 2.70
                            57 2.73
  34  0.169  0.782  0.466-   2 2.40  37 2.49  77 2.51  67 2.52  21 2.54  39 2.60  11 2.63  43 2.66
                            20 2.68
  35  0.678  0.787  0.187-  54 2.39  41 2.47  61 2.52  74 2.56   1 2.60  22 2.61  76 2.61  16 2.62
                            71 2.64  25 2.65  73 2.67  15 2.75
  36  0.181  0.284  0.187-  66 2.50  31 2.52   1 2.57  16 2.57  24 2.58  56 2.58  69 2.58  45 2.60
                            58 2.61  65 2.62  53 2.65  62 2.74
  37  0.188  0.030  0.466-  20 2.48  34 2.49  68 2.49   8 2.53  77 2.54   2 2.58  40 2.60   3 2.67
                            30 2.69
  38  0.932  0.521  0.187-  58 2.42  66 2.46  55 2.49  60 2.50  18 2.51  80 2.52  27 2.64  15 2.64
                            26 2.69  29 2.70  25 2.71  23 2.74
  39  0.419  0.780  0.469-  43 2.57  34 2.60  20 2.61  11 2.65  42 2.67  79 2.69  33 2.70  72 2.74
                            57 2.74
  40  0.358  0.124  0.374-  68 2.45  46 2.46  20 2.51  44 2.51  11 2.53  75 2.53   8 2.55  53 2.59
                            47 2.59  37 2.60  48 2.62  77 2.71
  41  0.602  0.863  0.097-  35 2.47  74 2.48  76 2.48  54 2.53  61 2.55   4 2.56  13 2.60  19 2.61
                            70 2.70
  42  0.356  0.615  0.373-  62 2.46  73 2.48  47 2.52  52 2.57  12 2.57  72 2.59  10 2.59  79 2.61
                            39 2.67  67 2.69  11 2.74  43 2.78
  43  0.174  0.528  0.471-  21 2.49   7 2.50  30 2.55  39 2.57  10 2.59  67 2.60  79 2.62  34 2.66
                            42 2.78
  44  0.514  0.196  0.284-  53 2.51  40 2.51  75 2.55  48 2.55   9 2.56  64 2.56  29 2.57  46 2.58
                            28 2.62  65 2.63  14 2.65  55 2.78
  45  0.094  0.111  0.095-  32 2.54   1 2.55  76 2.56   6 2.56  56 2.57  36 2.60  31 2.62  24 2.65
                             4 2.65
  46  0.594  0.364  0.375-  40 2.46  47 2.46  12 2.49  68 2.54   5 2.54  14 2.55  75 2.55  17 2.58
                            29 2.58  44 2.58  50 2.60  51 2.61
  47  0.361  0.375  0.375-  12 2.43  46 2.46  14 2.49  68 2.50  79 2.52  42 2.52  40 2.59  62 2.61
                            53 2.63  10 2.65   8 2.67  30 2.68
  48  0.262  0.955  0.281-  49 2.51  23 2.54  53 2.54  44 2.55  11 2.57  56 2.58  40 2.62   9 2.64
                            28 2.64  77 2.65  27 2.69  52 2.73
  49  0.018  0.951  0.282-  48 2.51  63 2.54  77 2.58  22 2.58  23 2.59   8 2.62  71 2.63   1 2.64
                            56 2.64  69 2.64  53 2.66  25 2.67
  50  0.684  0.531  0.467-  17 2.51  12 2.53  57 2.54   5 2.54  21 2.60  46 2.60   2 2.61  79 2.63
                            68 2.68
  51  0.846  0.363  0.376-  75 2.50   5 2.51  78 2.54   7 2.55  29 2.58  67 2.59  21 2.59  46 2.61
                            10 2.62  17 2.62  64 2.65  18 2.75
  52  0.269  0.695  0.281-  62 2.44  73 2.47  18 2.52  28 2.54  42 2.57  27 2.58  23 2.60  54 2.64
                            11 2.68  66 2.69  67 2.72  48 2.73
  53  0.277  0.207  0.281-  14 2.50  44 2.51  65 2.54  48 2.54  40 2.59  56 2.62  47 2.63  36 2.65
                            69 2.65  49 2.66   8 2.68  62 2.68
  54  0.447  0.786  0.189-  35 2.39  61 2.48  28 2.52  73 2.53  41 2.53  16 2.54  27 2.63  52 2.64
                            13 2.67   9 2.67  19 2.69  66 2.83
  55  0.690  0.281  0.184-  58 2.45  70 2.47  38 2.49  59 2.51  80 2.54   9 2.54  61 2.55  15 2.57
                            64 2.61  65 2.66  29 2.73  44 2.78
  56  0.186  0.038  0.187-  65 2.51   6 2.56  45 2.57  48 2.58  36 2.58   1 2.60   9 2.61  53 2.62
                            32 2.62  25 2.63  49 2.64  27 2.73
  57  0.683  0.776  0.469-  50 2.54   2 2.59   3 2.62  12 2.63  79 2.64  72 2.65  63 2.72  33 2.73
                            39 2.74
  58  0.930  0.288  0.186-  38 2.42  66 2.43  55 2.45  31 2.52  80 2.55  18 2.59  36 2.61   4 2.62
                            61 2.62  64 2.63  69 2.63   1 2.63
  59  0.609  0.358  0.093-  70 2.40  80 2.48  55 2.51  26 2.55  15 2.59   6 2.63  65 2.70  24 2.74
                            74 2.81
  60  0.090  0.603  0.097-  80 2.41  66 2.50  38 2.50  31 2.51  26 2.58  13 2.58  27 2.58  19 2.69
                            32 2.72
  61  0.680  0.031  0.186-  54 2.48  35 2.52   9 2.54  41 2.55  55 2.55   4 2.58  70 2.59   1 2.59
                            58 2.62  64 2.63  22 2.63  28 2.64
  62  0.269  0.460  0.284-  52 2.44  42 2.46  73 2.47  18 2.53  16 2.55  14 2.59  69 2.59  10 2.60
                            47 2.61  66 2.65  53 2.68  36 2.74
  63  0.854  0.874  0.372-  77 2.50  22 2.53  72 2.54  49 2.54  71 2.55   8 2.56  78 2.59   3 2.61
                            17 2.64   2 2.65  12 2.70  57 2.72
  64  0.764  0.198  0.280-  44 2.56  29 2.59  22 2.60  78 2.60  69 2.61  55 2.61  75 2.62  28 2.62
                            61 2.63  58 2.63  51 2.65  18 2.66
  65  0.432  0.278  0.188-   9 2.51  56 2.51  15 2.53  53 2.54   6 2.59  24 2.61  36 2.62  44 2.63
                            55 2.66  16 2.67  14 2.70  59 2.70
  66  0.168  0.518  0.187-  58 2.43  38 2.46  31 2.48  18 2.48  36 2.50  60 2.50  27 2.58  16 2.61
                            62 2.65  13 2.65  52 2.69  54 2.83
  67  0.095  0.615  0.378-  34 2.52  21 2.54  10 2.59  51 2.59  43 2.60  23 2.60  17 2.61  77 2.63
                            11 2.64  42 2.69  18 2.70  52 2.72
  68  0.423  0.276  0.463-  40 2.45  37 2.49  47 2.50  20 2.52  46 2.54  79 2.57  30 2.57   5 2.64
                            50 2.68
  69  0.020  0.207  0.280-  18 2.56  36 2.58  62 2.59  64 2.61  58 2.63   1 2.63  22 2.64  49 2.64
                            10 2.65  53 2.65  78 2.69   8 2.72
  70  0.602  0.123  0.095-  59 2.40  55 2.47   4 2.50  61 2.59  80 2.60   9 2.61   6 2.62  19 2.65
                            41 2.70
  71  0.758  0.703  0.283-  22 2.51  73 2.55  63 2.55  14 2.56  12 2.57  49 2.63  35 2.64  17 2.65
                            29 2.68  23 2.72  25 2.73  15 2.77
  72  0.605  0.867  0.374-  63 2.54  78 2.55  42 2.59  22 2.59  73 2.60  28 2.62  33 2.63  57 2.65
                            75 2.67  12 2.67  11 2.73  39 2.74
  73  0.509  0.697  0.283-  52 2.47  62 2.47  42 2.48  54 2.53  28 2.53  16 2.54  71 2.55  14 2.58
                            72 2.60  22 2.65  35 2.67  12 2.68
  74  0.605  0.626  0.095-  41 2.48  76 2.48  35 2.56  26 2.56  15 2.61  13 2.62  24 2.66  16 2.75
                            59 2.81
  75  0.603  0.123  0.375-  51 2.50   5 2.52  40 2.53  78 2.53  44 2.55  46 2.55  33 2.56  20 2.56
                            64 2.62  11 2.63  72 2.67  28 2.72
  76  0.844  0.867  0.093-  74 2.48  41 2.48  45 2.56  32 2.60  35 2.61   4 2.62  25 2.62   1 2.63
                            26 2.65
  77  0.092  0.866  0.376-   2 2.49  63 2.50   8 2.51  34 2.51  37 2.54  11 2.57  49 2.58  23 2.58
                            17 2.60  67 2.63  48 2.65  40 2.71
  78  0.845  0.118  0.375-  75 2.53  51 2.54  72 2.55  33 2.57   7 2.59  63 2.59   3 2.60  64 2.60
                            10 2.62  22 2.63  69 2.69   8 2.72
  79  0.426  0.524  0.468-  30 2.50  47 2.52  68 2.57  42 2.61  12 2.62  43 2.62  50 2.63  57 2.64
                            39 2.69
  80  0.856  0.373  0.094-  60 2.41  59 2.48  31 2.52  38 2.52  26 2.54  55 2.54  58 2.55   4 2.57
                            70 2.60
 
  LATTYP: Found a triclinic cell.
 ALAT       =    10.3305060674
 B/A-ratio  =     1.0048369216
 C/A-ratio  =     2.2181212507
 COS(alpha) =     0.0046562232
 COS(beta)  =     0.0072128958
 COS(gamma) =     0.5007956402
  
  Lattice vectors:
  
 A1 = (   8.9376458109,  -5.1802149457,  -0.0567105283)
 A2 = (  -0.0080191628, -10.3804102116,  -0.0354715521)
 A3 = (   0.0291723129,  -0.0284155347, -22.9142788501)


Analysis of symmetry for initial positions (statically):
=====================================================================
 Subroutine PRICEL returns:
 Original cell was already a primitive cell.
 

 Routine SETGRP: Setting up the symmetry group for a 
 triclinic supercell.


 Subroutine GETGRP returns: Found  1 space group operations
 (whereof  1 operations were pure point group operations)
 out of a pool of  2 trial point group operations.


The static configuration has the point symmetry C_1 .


Analysis of symmetry for dynamics (positions and initial velocities):
=====================================================================
 Subroutine PRICEL returns:
 Original cell was already a primitive cell.
 

 Routine SETGRP: Setting up the symmetry group for a 
 triclinic supercell.


 Subroutine GETGRP returns: Found  1 space group operations
 (whereof  1 operations were pure point group operations)
 out of a pool of  2 trial point group operations.


The dynamic configuration has the point symmetry C_1 .


Analysis of constrained symmetry for selective dynamics:
=====================================================================
 Subroutine PRICEL returns:
 Original cell was already a primitive cell.
 

 Routine SETGRP: Setting up the symmetry group for a 
 triclinic supercell.


 Subroutine GETGRP returns: Found  1 space group operations
 (whereof  1 operations were pure point group operations)
 out of a pool of  2 trial point group operations.


The constrained configuration has the point symmetry C_1 .


Analysis of structural, dynamic, and magnetic symmetry:
=====================================================================
 Subroutine PRICEL returns:
 Original cell was already a primitive cell.
 

 Routine SETGRP: Setting up the symmetry group for a 
 triclinic supercell.


 Subroutine GETGRP returns: Found  1 space group operations
 (whereof  1 operations were pure point group operations)
 out of a pool of  2 trial point group operations.


The magnetic configuration has the point symmetry C_1 .


 Subroutine INISYM returns: Found  1 space group operations
 (whereof  1 operations are pure point group operations),
 and found     1 'primitive' translations

 
 
 KPOINTS: Automatic mesh                          

Automatic generation of k-mesh.
Space group operators:
 irot       det(A)        alpha          n_x          n_y          n_z        tau_x        tau_y        tau_z
    1     1.000000     0.000000     1.000000     0.000000     0.000000     0.000000     0.000000     0.000000
 
 Subroutine IBZKPT returns following result:
 ===========================================
 
 Found      1 irreducible k-points:
 
 Following reciprocal coordinates:
            Coordinates               Weight
  0.000000  0.000000  0.000000      1.000000
 
 Following cartesian coordinates:
            Coordinates               Weight
  0.000000  0.000000  0.000000      1.000000
 


--------------------------------------------------------------------------------------------------------




 Dimension of arrays:
   k-points           NKPTS =      1   k-points in BZ     NKDIM =      1   number of bands    NBANDS=    524
   number of dos      NEDOS =    301   number of ions     NIONS =     80
   non local maximal  LDIM  =      6   non local SUM 2l+1 LMDIM =     18
   total plane-waves  NPLWV = ******
   max r-space proj   IRMAX =   7466   max aug-charges    IRDMAX=  30815
   dimension x,y,z NGX =    80 NGY =   80 NGZ =  168
   dimension x,y,z NGXF=   160 NGYF=  160 NGZF=  336
   support grid    NGXF=   160 NGYF=  160 NGZF=  336
   ions per type =              15  14  16  18  17
   NGX,Y,Z   is equivalent  to a cutoff of  12.87, 12.81, 12.19 a.u.
   NGXF,Y,Z  is equivalent  to a cutoff of  25.75, 25.62, 24.38 a.u.

 SYSTEM =  ML                                      
 POSCAR =  Pt   Pd   Ni   Co   Fe                  

 Startparameter for this run:
   NWRITE =      2    write-flag & timer
   PREC   = accura    normal or accurate (medium, high low for compatibility)
   ISTART =      0    job   : 0-new  1-cont  2-samecut
   ICHARG =      2    charge: 1-file 2-atom 10-const
   ISPIN  =      2    spin polarized calculation?
   LNONCOLLINEAR =      F non collinear calculations
   LSORBIT =      F    spin-orbit coupling
   INIWAV =      1    electr: 0-lowe 1-rand  2-diag
   LASPH  =      F    aspherical Exc in radial PAW
   METAGGA=      F    non-selfconsistent MetaGGA calc.

 Electronic Relaxation 1
   ENCUT  =  500.0 eV  36.75 Ry    6.06 a.u.  18.83 18.93 41.78*2*pi/ulx,y,z
   ENINI  =  500.0     initial cutoff
   ENAUG  =  544.6 eV  augmentation charge cutoff
   NELM   =    300;   NELMIN=  4; NELMDL= -5     # of ELM steps 
   EDIFF  = 0.1E-05   stopping-criterion for ELM
   LREAL  =      T    real-space projection
   NLSPLINE    = F    spline interpolate recip. space projectors
   LCOMPAT=      F    compatible to vasp.4.4
   GGA_COMPAT  = T    GGA compatible to vasp.4.4-vasp.4.6
   LMAXPAW     = -100 max onsite density
   LMAXMIX     =    2 max onsite mixed and CHGCAR
   VOSKOWN=      0    Vosko Wilk Nusair interpolation
   ROPT   =   -0.00025  -0.00025  -0.00025  -0.00025
   ROPT   =   -0.00025
 Ionic relaxation
   EDIFFG = -.5E-01   stopping-criterion for IOM
   NSW    =    300    number of steps for IOM
   NBLOCK =      1;   KBLOCK =    300    inner block; outer block 
   IBRION =      2    ionic relax: 0-MD 1-quasi-New 2-CG
   NFREE  =      1    steps in history (QN), initial steepest desc. (CG)
   ISIF   =      2    stress and relaxation
   IWAVPR =     11    prediction:  0-non 1-charg 2-wave 3-comb
   ISYM   =      2    0-nonsym 1-usesym 2-fastsym
   LCORR  =      T    Harris-Foulkes like correction to forces

   POTIM  = 0.5000    time-step for ionic-motion
   TEIN   =    0.0    initial temperature
   TEBEG  =    0.0;   TEEND  =   0.0 temperature during run
   SMASS  =  -3.00    Nose mass-parameter (am)
   estimated Nose-frequenzy (Omega)   =  0.10E-29 period in steps =****** mass=  -0.244E-26a.u.
   SCALEE = 1.0000    scale energy and forces
   NPACO  =    256;   APACO  = 16.0  distance and # of slots for P.C.
   PSTRESS=    0.0 pullay stress

  Mass of Ions in am
   POMASS = 195.08106.42 58.69 58.93 55.85
  Ionic Valenz
   ZVAL   =  10.00 10.00 10.00  9.00  8.00
  Atomic Wigner-Seitz radii
   RWIGS  =  -1.00 -1.00 -1.00 -1.00 -1.00
  virtual crystal weights 
   VCA    =   1.00  1.00  1.00  1.00  1.00
   NELECT =     748.0000    total number of electrons
   NUPDOWN=      -1.0000    fix difference up-down

 DOS related values:
   EMIN   =  10.00;   EMAX   =-10.00  energy-range for DOS
   EFERMI =   0.00
   ISMEAR =     1;   SIGMA  =   0.10  broadening in eV -4-tet -1-fermi 0-gaus

 Electronic relaxation 2 (details)
   IALGO  =     68    algorithm
   LDIAG  =      T    sub-space diagonalisation (order eigenvalues)
   LSUBROT=      F    optimize rotation matrix (better conditioning)
   TURBO    =      0    0=normal 1=particle mesh
   IRESTART =      0    0=no restart 2=restart with 2 vectors
   NREBOOT  =      0    no. of reboots
   NMIN     =      0    reboot dimension
   EREF     =   0.00    reference energy to select bands
   IMIX   =      4    mixing-type and parameters
     AMIX     =   0.40;   BMIX     =  1.00
     AMIX_MAG =   1.60;   BMIX_MAG =  1.00
     AMIN     =   0.10
     WC   =   100.;   INIMIX=   1;  MIXPRE=   1;  MAXMIX= -45

 Intra band minimization:
   WEIMIN = 0.0010     energy-eigenvalue tresh-hold
   EBREAK =  0.48E-09  absolut break condition
   DEPER  =   0.30     relativ break condition  

   TIME   =   0.40     timestep for ELM

  volume/ion in A,a.u.               =      26.59       179.41
  Fermi-wavevector in a.u.,A,eV,Ry     =   1.155573  2.183716 18.168523  1.335349
  Thomas-Fermi vector in A             =   2.292200
 
 Write flags
   LWAVE        =      F    write WAVECAR
   LDOWNSAMPLE  =      F    k-point downsampling of WAVECAR
   LCHARG       =      F    write CHGCAR
   LVTOT        =      F    write LOCPOT, total local potential
   LVHAR        =      F    write LOCPOT, Hartree potential only
   LELF         =      F    write electronic localiz. function (ELF)
   LORBIT       =     11    0 simple, 1 ext, 2 COOP (PROOUT), +10 PAW based schemes


 Dipole corrections
   LMONO  =      F    monopole corrections only (constant potential shift)
   LDIPOL =      F    correct potential (dipole corrections)
   IDIPOL =      0    1-x, 2-y, 3-z, 4-all directions 
   EPSILON=  1.0000000 bulk dielectric constant

 Exchange correlation treatment:
   GGA     =    PE    GGA type
   LEXCH   =     8    internal setting for exchange type
   VOSKOWN=      0    Vosko Wilk Nusair interpolation
   LHFCALC =     F    Hartree Fock is set to
   LHFONE  =     F    Hartree Fock one center treatment
   AEXX    =    0.0000 exact exchange contribution

 Linear response parameters
   LEPSILON=     F    determine dielectric tensor
   LRPA    =     F    only Hartree local field effects (RPA)
   LNABLA  =     F    use nabla operator in PAW spheres
   LVEL    =     F    velocity operator in full k-point grid
   LINTERFAST=   F  fast interpolation
   KINTER  =     0    interpolate to denser k-point grid
   CSHIFT  =0.1000    complex shift for real part using Kramers Kronig
   OMEGAMAX=  -1.0    maximum frequency
   DEG_THRESHOLD= 0.2000000E-02 threshold for treating states as degnerate
   RTIME   =   -0.100 relaxation time in fs
  (WPLASMAI=    0.000 imaginary part of plasma frequency in eV, 0.658/RTIME)
   DFIELD  = 0.0000000 0.0000000 0.0000000 field for delta impulse in time
 
 Orbital magnetization related:
   ORBITALMAG=     F  switch on orbital magnetization
   LCHIMAG   =     F  perturbation theory with respect to B field
   DQ        =  0.001000  dq finite difference perturbation B field
   LLRAUG    =     F  two centre corrections for induced B field



--------------------------------------------------------------------------------------------------------


 conjugate gradient relaxation of ions
   using selective dynamics as specified on POSCAR
 charge density and potential will be updated during run
 spin polarized calculation
 RMM-DIIS sequential band-by-band and
  variant of blocked Davidson during initial phase
 perform sub-space diagonalisation
    before iterative eigenvector-optimisation
 modified Broyden-mixing scheme, WC =      100.0
 initial mixing is a Kerker type mixing with AMIX =  0.4000 and BMIX =      1.0000
 Hartree-type preconditioning will be used
 using additional bands          150
 real space projection scheme for non local part
 use partial core corrections
 calculate Harris-corrections to forces 
   (improved forces if not selfconsistent)
 use gradient corrections 
 use of overlap-Matrix (Vanderbilt PP)
 Methfessel and Paxton  Order N= 1 SIGMA  =   0.10


--------------------------------------------------------------------------------------------------------


  energy-cutoff  :      500.00
  volume of cell :     2126.84
      direct lattice vectors                 reciprocal lattice vectors
     8.937645811 -5.180214946 -0.056710528     0.111836833 -0.000086884  0.000142488
     0.008019163 10.380410212  0.035471552     0.055810263  0.096292357 -0.000048358
    -0.029172313  0.028415535 22.914278850     0.000190390 -0.000149277  0.043641338

  length of vectors
    10.330506067 10.380473915 22.914315039     0.111836958  0.111296926  0.043642009


 
 k-points in units of 2pi/SCALE and weight: Automatic mesh                          
   0.00000000  0.00000000  0.00000000       1.000
 
 k-points in reciprocal lattice and weights: Automatic mesh                          
   0.00000000  0.00000000  0.00000000       1.000
 
 position of ions in fractional coordinates (direct lattice) 
   0.93300842  0.03540458  0.18702892
   0.93702778  0.78212340  0.46577739
   0.93093995  0.03329250  0.46704531
   0.84102530  0.11779868  0.09345992
   0.68332631  0.28621446  0.46477487
   0.34430746  0.11549093  0.09477518
   0.93283811  0.28623642  0.46686684
   0.10681027  0.11474112  0.37629364
   0.43999951  0.04039808  0.18985475
   0.10185610  0.36900861  0.37685808
   0.34418020  0.87393906  0.37407344
   0.59967277  0.60666397  0.37607499
   0.34629138  0.61566042  0.09431243
   0.51490918  0.45128256  0.28422403
   0.67664962  0.52173737  0.18562719
   0.42755634  0.53288925  0.19234824
   0.84131980  0.61394519  0.37736764
   0.02173474  0.45467606  0.27808167
   0.34958585  0.86415956  0.09361907
   0.43156832  0.03763791  0.46463463
   0.93361788  0.52826300  0.46864039
   0.76757161  0.94999062  0.28118743
   0.02251051  0.70425173  0.28297400
   0.34913822  0.36773241  0.09568982
   0.93307916  0.78265223  0.18594076
   0.84621151  0.61292756  0.09177382
   0.18735473  0.77554181  0.18753438
   0.51211358  0.94257576  0.28044734
   0.76124282  0.44652634  0.28359833
   0.18001852  0.28575338  0.46727645
   0.09430783  0.36339053  0.09731050
   0.09520374  0.86713946  0.09470589
   0.68240595  0.03848462  0.46701802
   0.16879052  0.78187670  0.46577955
   0.67843465  0.78712210  0.18694270
   0.18054271  0.28375090  0.18654460
   0.18808014  0.03037959  0.46588981
   0.93188884  0.52145487  0.18709702
   0.41937114  0.78002151  0.46908826
   0.35846883  0.12406208  0.37439150
   0.60158620  0.86302205  0.09698665
   0.35556343  0.61547950  0.37258784
   0.17424825  0.52810761  0.47079640
   0.51448552  0.19618155  0.28350215
   0.09415491  0.11111849  0.09534098
   0.59352826  0.36406197  0.37475104
   0.36109003  0.37532581  0.37463915
   0.26248419  0.95465432  0.28126515
   0.01798222  0.95149086  0.28168931
   0.68394584  0.53142910  0.46747411
   0.84556994  0.36333188  0.37580572
   0.26909381  0.69496931  0.28088109
   0.27717402  0.20673328  0.28069674
   0.44686639  0.78642370  0.18922785
   0.69025987  0.28103529  0.18374033
   0.18628202  0.03817026  0.18744803
   0.68288548  0.77573314  0.46946207
   0.93016373  0.28759311  0.18609696
   0.60872370  0.35791273  0.09309195
   0.09034483  0.60304829  0.09745930
   0.68038046  0.03073797  0.18640674
   0.26873071  0.46022292  0.28411756
   0.85392529  0.87368428  0.37190896
   0.76353266  0.19801826  0.28027515
   0.43183504  0.27828927  0.18807748
   0.16839677  0.51837876  0.18651956
   0.09469600  0.61470130  0.37761482
   0.42298481  0.27552552  0.46320649
   0.02049081  0.20736949  0.28002251
   0.60168503  0.12345510  0.09532779
   0.75832725  0.70328787  0.28318729
   0.60453080  0.86665014  0.37421221
   0.50880128  0.69705070  0.28254284
   0.60511458  0.62633548  0.09468193
   0.60295897  0.12343598  0.37536564
   0.84377682  0.86703614  0.09334830
   0.09208796  0.86642569  0.37568914
   0.84528668  0.11844604  0.37515915
   0.42550519  0.52375303  0.46754869
   0.85564808  0.37271564  0.09380750
 
 position of ions in cartesian coordinates  (Angst):
   8.33372661 -4.46035557  4.23397722
   8.36750659  3.27799175 10.64755668
   8.30705370 -4.46360786 10.65039322
   7.51500445 -3.13123749  2.09805021
   6.09606515 -0.55554687 10.62138176
   3.07545947 -0.58205035  2.15627570
   8.32605245 -1.84778421 10.65516836
   0.94457514  0.64845228  8.62051023
   3.92734523 -1.85454862  4.32686513
   0.90231907  3.31353285  8.64274402
   3.07225641  7.29954805  8.58310449
   5.35355682  3.20167341  8.60499872
   3.09721544  4.59962386  2.16330135
   4.59740332  2.02523419  6.49959554
   6.04642337  1.91593218  4.23364696
   3.82000918  3.32224100  4.40217676
   7.51333302  2.02550857  8.62117323
   0.18979125  4.61503521  6.38693647
   3.12867326  7.16206116  2.15604145
   3.84395216 -1.83171684 10.62362812
   8.33491084  0.66056204 10.70434889
   6.85969844  5.89309650  6.43337544
   0.19858348  7.20185344  6.50784943
   3.12063112  2.01132129  2.18590756
   8.34038293  3.29598420  4.23554485
   7.56537664  1.98148980  2.07668328
   1.67525863  7.08523323  4.31409972
   4.57646713  7.13943367  6.43064093
   6.79902627  0.69978372  6.47111970
   1.59760178  2.04698056 10.70722995
   0.84296529  3.28637311  2.23734169
   0.85508822  8.51077859  2.19547689
   6.08578732 -3.12225282 10.66404664
   1.50127198  7.25506514 10.69116470
   6.06446707  4.66152504  4.27310327
   1.61046029  2.01550148  4.27436132
   1.66764619 -0.64570444 10.66594061
   8.32761595  0.59084739  4.25284226
   3.74076141  5.93784004 10.75270490
   3.19394040 -0.55849171  8.56298295
   5.38085575  5.84493297  2.21887551
   3.17196636  4.55762197  8.53924943
   1.54786987  4.59270821 10.79681114
   4.59159215 -0.62064476  6.47402939
   0.83963296  0.66842203  2.18327186
   5.29673245  0.71515741  8.56640427
   3.21937553  2.03615744  8.57742181
   2.34544109  8.55797128  6.46396564
   0.16013137  9.79171798  6.48743847
   6.10349002  1.98674910 10.69189578
   7.54935517 -0.59802137  8.57625240
   2.40244428  5.82808416  6.44557891
   2.47075251  0.71813135  6.42357774
   3.99471974  5.85391366  4.33857345
   6.16619179 -0.65321183  4.18110094
   1.65976050 -0.56343153  4.28602623
   6.09591396  4.52827463 10.74617452
   8.31035135 -1.82782561  4.22172893
   5.44071125  0.56460661  2.11130956
   0.80946291  5.79465238  2.24947703
   6.07580810 -3.20014741  4.23388150
   2.39722215  3.39329316  6.51143400
   7.62823853  4.65625268  8.50458999
   6.81759619 -1.89178838  6.38602659
   3.85633361  0.65710274  4.29504151
   1.50378641  4.51395274  4.28279906
   0.84027283  5.90103609  8.66920543
   3.76918508  0.68207794 10.59982824
   0.17663363  2.05439061  6.42270747
   5.37585679 -1.83263439  2.15462487
   6.77503890  3.38016537  6.47097400
   5.39911535  5.87521795  8.57126114
   4.54483301  4.60800078  6.47013657
   5.41056035  3.36968608  2.15746891
   5.37907329 -1.83147477  8.57141739
   7.54560809  4.63189804  2.12191315
   0.81903787  8.52749400  8.63415690
   7.54487855 -3.13858786  8.55276617
   3.79357524  3.24584860 10.70798884
   7.64773176 -0.56083410  2.11422776
 


--------------------------------------------------------------------------------------------------------


 k-point  1 :   0.0000 0.0000 0.0000  plane waves:   53923

 maximum and minimum number of plane-waves per node :      6753     6732

 maximum number of plane-waves:     53923
 maximum index in each direction: 
   IXMAX=   18   IYMAX=   18   IZMAX=   41
   IXMIN=  -18   IYMIN=  -18   IZMIN=  -41


 real space projection operators:
  total allocation   :      75422.25 KBytes
  max/ min on nodes  :       9447.05       9404.58


 parallel 3D FFT for wavefunctions:
    minimum data exchange during FFTs selected (reduces bandwidth)
 parallel 3D FFT for charge:
    minimum data exchange during FFTs selected (reduces bandwidth)


 total amount of memory used by VASP MPI-rank0   133120. kBytes
=======================================================================

   base      :      30000. kBytes
   nonlr-proj:      21750. kBytes
   fftplans  :      13111. kBytes
   grid      :      38873. kBytes
   one-center:        311. kBytes
   wavefun   :      29075. kBytes
 
     INWAV:  cpu time    0.0000: real time    0.0000
 Broyden mixing: mesh for mixing (old mesh)
   NGX = 37   NGY = 37   NGZ = 83
  (NGX  =160   NGY  =160   NGZ  =336)
  gives a total of 113627 points

 initial charge density was supplied:
 charge density of overlapping atoms calculated
 number of electron     748.0000000 magnetization     149.5000000
 keeping initial charge density in first step


--------------------------------------------------------------------------------------------------------


 Maximum index for non-local projection operator          920
 Maximum index for augmentation-charges         1036 (set IRDMAX)


--------------------------------------------------------------------------------------------------------


 First call to EWALD:  gamma=   0.138
 Maximum number of real-space cells 4x 4x 2
 Maximum number of reciprocal cells 2x 2x 5

    FEWALD:  cpu time    0.0030: real time    0.0030


--------------------------------------- Iteration      1(   1)  ---------------------------------------


    POTLOK:  cpu time    0.5380: real time    0.5434
    SETDIJ:  cpu time    0.0321: real time    0.0329
     EDDAV:  cpu time   23.1424: real time   23.3272
       DOS:  cpu time    0.0012: real time    0.0012
    --------------------------------------------
      LOOP:  cpu time   23.7138: real time   23.9047

 eigenvalue-minimisations  :  2096
 total energy-change (2. order) : 0.6710365E+04  (-0.3113003E+05)
 number of electron     748.0000000 magnetization     149.5000000
 augmentation part      748.0000000 magnetization     149.5000000

 Free energy of the ion-electron system (eV)
  ---------------------------------------------------
  alpha Z        PSCENC =      1923.82675843
  Ewald energy   TEWEN  =    241510.07696186
  -Hartree energ DENC   =   -307572.45604853
  -exchange      EXHF   =         0.00000000
  -V(xc)+E(xc)   XCENC  =       550.67268551
  PAW double counting   =     59511.69227997   -60370.99676613
  entropy T*S    EENTRO =        -0.00844100
  eigenvalues    EBANDS =      6897.77351697
  atomic energy  EATOM  =     64259.78364355
  Solvation  Ediel_sol  =         0.00000000
  ---------------------------------------------------
  free energy    TOTEN  =      6710.36459063 eV

  energy without entropy =     6710.37303162  energy(sigma->0) =     6710.36740429


--------------------------------------------------------------------------------------------------------




--------------------------------------- Iteration      1(   2)  ---------------------------------------


     EDDAV:  cpu time   23.0996: real time   23.2819
       DOS:  cpu time    0.0012: real time    0.0012
    --------------------------------------------
      LOOP:  cpu time   23.1007: real time   23.2831

 eigenvalue-minimisations  :  2096
 total energy-change (2. order) :-0.6329628E+04  (-0.5784794E+04)
 number of electron     748.0000000 magnetization     149.5000000
 augmentation part      748.0000000 magnetization     149.5000000

 Free energy of the ion-electron system (eV)
  ---------------------------------------------------
  alpha Z        PSCENC =      1923.82675843
  Ewald energy   TEWEN  =    241510.07696186
  -Hartree energ DENC   =   -307572.45604853
  -exchange      EXHF   =         0.00000000
  -V(xc)+E(xc)   XCENC  =       550.67268551
  PAW double counting   =     59511.69227997   -60370.99676613
  entropy T*S    EENTRO =         0.01150313
  eigenvalues    EBANDS =       568.12511785
  atomic energy  EATOM  =     64259.78364355
  Solvation  Ediel_sol  =         0.00000000
  ---------------------------------------------------
  free energy    TOTEN  =       380.73613563 eV

  energy without entropy =      380.72463251  energy(sigma->0) =      380.73230126


--------------------------------------------------------------------------------------------------------




--------------------------------------- Iteration      1(   3)  ---------------------------------------


     EDDAV:  cpu time   24.4348: real time   24.6276
       DOS:  cpu time    0.0012: real time    0.0012
    --------------------------------------------
      LOOP:  cpu time   24.4360: real time   24.6288

 eigenvalue-minimisations  :  2252
 total energy-change (2. order) :-0.8643832E+03  (-0.7058218E+03)
 number of electron     748.0000000 magnetization     149.5000000
 augmentation part      748.0000000 magnetization     149.5000000

 Free energy of the ion-electron system (eV)
  ---------------------------------------------------
  alpha Z        PSCENC =      1923.82675843
  Ewald energy   TEWEN  =    241510.07696186
  -Hartree energ DENC   =   -307572.45604853
  -exchange      EXHF   =         0.00000000
  -V(xc)+E(xc)   XCENC  =       550.67268551
  PAW double counting   =     59511.69227997   -60370.99676613
  entropy T*S    EENTRO =        -0.00137334
  eigenvalues    EBANDS =      -296.24522468
  atomic energy  EATOM  =     64259.78364355
  Solvation  Ediel_sol  =         0.00000000
  ---------------------------------------------------
  free energy    TOTEN  =      -483.64708336 eV

  energy without entropy =     -483.64571002  energy(sigma->0) =     -483.64662558


--------------------------------------------------------------------------------------------------------




--------------------------------------- Iteration      1(   4)  ---------------------------------------


     EDDAV:  cpu time   25.7125: real time   25.9141
       DOS:  cpu time    0.0011: real time    0.0011
    --------------------------------------------
      LOOP:  cpu time   25.7136: real time   25.9152

 eigenvalue-minimisations  :  2392
 total energy-change (2. order) :-0.7286027E+02  (-0.6863177E+02)
 number of electron     748.0000000 magnetization     149.5000000
 augmentation part      748.0000000 magnetization     149.5000000

 Free energy of the ion-electron system (eV)
  ---------------------------------------------------
  alpha Z        PSCENC =      1923.82675843
  Ewald energy   TEWEN  =    241510.07696186
  -Hartree energ DENC   =   -307572.45604853
  -exchange      EXHF   =         0.00000000
  -V(xc)+E(xc)   XCENC  =       550.67268551
  PAW double counting   =     59511.69227997   -60370.99676613
  entropy T*S    EENTRO =        -0.02255980
  eigenvalues    EBANDS =      -369.08430367
  atomic energy  EATOM  =     64259.78364355
  Solvation  Ediel_sol  =         0.00000000
  ---------------------------------------------------
  free energy    TOTEN  =      -556.50734882 eV

  energy without entropy =     -556.48478901  energy(sigma->0) =     -556.49982888


--------------------------------------------------------------------------------------------------------




--------------------------------------- Iteration      1(   5)  ---------------------------------------


     EDDAV:  cpu time   25.3183: real time   25.5313
       DOS:  cpu time    0.0013: real time    0.0013
    CHARGE:  cpu time    0.6309: real time    0.6348
    MIXING:  cpu time    0.0176: real time    0.0181
    --------------------------------------------
      LOOP:  cpu time   25.9682: real time   26.1855

 eigenvalue-minimisations  :  2352
 total energy-change (2. order) :-0.1788205E+01  (-0.1782274E+01)
 number of electron     747.9999982 magnetization     144.6188336
 augmentation part      334.4451254 magnetization     115.5201745

 Broyden mixing:
  rms(total) = 0.10011E+02    rms(broyden)= 0.10011E+02
  rms(prec ) = 0.10327E+02
  weight for this iteration     100.00

 Free energy of the ion-electron system (eV)
  ---------------------------------------------------
  alpha Z        PSCENC =      1923.82675843
  Ewald energy   TEWEN  =    241510.07696186
  -Hartree energ DENC   =   -307572.45604853
  -exchange      EXHF   =         0.00000000
  -V(xc)+E(xc)   XCENC  =       550.67268551
  PAW double counting   =     59511.69227997   -60370.99676613
  entropy T*S    EENTRO =        -0.02205310
  eigenvalues    EBANDS =      -370.87301538
  atomic energy  EATOM  =     64259.78364355
  Solvation  Ediel_sol  =         0.00000000
  ---------------------------------------------------
  free energy    TOTEN  =      -558.29555382 eV

  energy without entropy =     -558.27350072  energy(sigma->0) =     -558.28820279


--------------------------------------------------------------------------------------------------------




--------------------------------------- Iteration      1(   6)  ---------------------------------------


    POTLOK:  cpu time    0.5255: real time    0.5294
    SETDIJ:  cpu time    0.0315: real time    0.0317
    EDDIAG:  cpu time    3.4779: real time    3.5038
  RMM-DIIS:  cpu time   11.2304: real time   11.3078
    ORTHCH:  cpu time    1.0157: real time    1.0220
       DOS:  cpu time    0.0014: real time    0.0014
    CHARGE:  cpu time    0.6503: real time    0.6540
    MIXING:  cpu time    0.0159: real time    0.0163
    --------------------------------------------
      LOOP:  cpu time   16.9485: real time   17.0663

 eigenvalue-minimisations  :  2098
 total energy-change (2. order) :-0.1330988E+03  (-0.8619939E+02)
 number of electron     747.9999976 magnetization     141.9831576
 augmentation part      392.1544398 magnetization     126.0185037

 Broyden mixing:
  rms(total) = 0.17634E+02    rms(broyden)= 0.17634E+02
  rms(prec ) = 0.19272E+02
  weight for this iteration     100.00

 eigenvalues of (default mixing * dielectric matrix)
  average eigenvalue GAMMA=   0.2400
  0.2400

 Free energy of the ion-electron system (eV)
  ---------------------------------------------------
  alpha Z        PSCENC =      1923.82675843
  Ewald energy   TEWEN  =    241510.07696186
  -Hartree energ DENC   =   -306660.55196437
  -exchange      EXHF   =         0.00000000
  -V(xc)+E(xc)   XCENC  =       503.04775108
  PAW double counting   =     65071.66464188   -65754.22704353
  entropy T*S    EENTRO =         0.00272536
  eigenvalues    EBANDS =     -1545.01782595
  atomic energy  EATOM  =     64259.78364355
  Solvation  Ediel_sol  =         0.00000000
  ---------------------------------------------------
  free energy    TOTEN  =      -691.39435170 eV

  energy without entropy =     -691.39707706  energy(sigma->0) =     -691.39526016


--------------------------------------------------------------------------------------------------------




--------------------------------------- Iteration      1(   7)  ---------------------------------------


    POTLOK:  cpu time    0.5275: real time    0.5313
    SETDIJ:  cpu time    0.0305: real time    0.0306
    EDDIAG:  cpu time    3.5354: real time    3.5617
  RMM-DIIS:  cpu time   11.1828: real time   11.2584
    ORTHCH:  cpu time    0.9853: real time    0.9915
       DOS:  cpu time    0.0012: real time    0.0013
    CHARGE:  cpu time    0.6368: real time    0.6405
    MIXING:  cpu time    0.0160: real time    0.0162
    --------------------------------------------
      LOOP:  cpu time   16.9156: real time   17.0314

 eigenvalue-minimisations  :  2101
 total energy-change (2. order) : 0.1453408E+03  (-0.2486232E+02)
 number of electron     747.9999976 magnetization     139.4075233
 augmentation part      369.3642577 magnetization     113.8779433

 Broyden mixing:
  rms(total) = 0.10825E+02    rms(broyden)= 0.10825E+02
  rms(prec ) = 0.13385E+02
  weight for this iteration     100.00

 eigenvalues of (default mixing * dielectric matrix)
  average eigenvalue GAMMA=   0.2891
  0.3463  0.2319

 Free energy of the ion-electron system (eV)
  ---------------------------------------------------
  alpha Z        PSCENC =      1923.82675843
  Ewald energy   TEWEN  =    241510.07696186
  -Hartree energ DENC   =   -306651.85735521
  -exchange      EXHF   =         0.00000000
  -V(xc)+E(xc)   XCENC  =       508.22075217
  PAW double counting   =     66347.75003626   -67189.35398635
  entropy T*S    EENTRO =        -0.00701962
  eigenvalues    EBANDS =     -1254.49329398
  atomic energy  EATOM  =     64259.78364355
  Solvation  Ediel_sol  =         0.00000000
  ---------------------------------------------------
  free energy    TOTEN  =      -546.05350289 eV

  energy without entropy =     -546.04648326  energy(sigma->0) =     -546.05116301


--------------------------------------------------------------------------------------------------------




--------------------------------------- Iteration      1(   8)  ---------------------------------------


    POTLOK:  cpu time    0.5238: real time    0.5275
    SETDIJ:  cpu time    0.0309: real time    0.0313
    EDDIAG:  cpu time    3.4728: real time    3.4982
  RMM-DIIS:  cpu time   11.1818: real time   11.2580
    ORTHCH:  cpu time    0.9901: real time    0.9962
       DOS:  cpu time    0.0013: real time    0.0013
    CHARGE:  cpu time    0.6423: real time    0.6460
    MIXING:  cpu time    0.0196: real time    0.0197
    --------------------------------------------
      LOOP:  cpu time   16.8624: real time   16.9781

 eigenvalue-minimisations  :  2099
 total energy-change (2. order) :-0.1830948E+03  (-0.1566026E+02)
 number of electron     747.9999980 magnetization     136.5469113
 augmentation part      356.2285534 magnetization     110.4639075

 Broyden mixing:
  rms(total) = 0.19283E+02    rms(broyden)= 0.19282E+02
  rms(prec ) = 0.26178E+02
  weight for this iteration     100.00

 eigenvalues of (default mixing * dielectric matrix)
  average eigenvalue GAMMA=   0.2646
  0.4336  0.2805  0.0795

 Free energy of the ion-electron system (eV)
  ---------------------------------------------------
  alpha Z        PSCENC =      1923.82675843
  Ewald energy   TEWEN  =    241510.07696186
  -Hartree energ DENC   =   -306852.61626190
  -exchange      EXHF   =         0.00000000
  -V(xc)+E(xc)   XCENC  =       513.56637847
  PAW double counting   =     67582.62879876   -68487.81515851
  entropy T*S    EENTRO =         0.00882743
  eigenvalues    EBANDS =     -1178.60826281
  atomic energy  EATOM  =     64259.78364355
  Solvation  Ediel_sol  =         0.00000000
  ---------------------------------------------------
  free energy    TOTEN  =      -729.14831472 eV

  energy without entropy =     -729.15714215  energy(sigma->0) =     -729.15125719


--------------------------------------------------------------------------------------------------------




--------------------------------------- Iteration      1(   9)  ---------------------------------------


    POTLOK:  cpu time    0.5214: real time    0.5251
    SETDIJ:  cpu time    0.0304: real time    0.0306
    EDDIAG:  cpu time    3.5032: real time    3.5295
  RMM-DIIS:  cpu time   11.2467: real time   11.3233
    ORTHCH:  cpu time    1.0196: real time    1.0261
       DOS:  cpu time    0.0014: real time    0.0014
    CHARGE:  cpu time    0.6481: real time    0.6521
    MIXING:  cpu time    0.0175: real time    0.0177
    --------------------------------------------
      LOOP:  cpu time   16.9884: real time   17.1057

 eigenvalue-minimisations  :  2101
 total energy-change (2. order) : 0.9828773E+02  (-0.9742433E+01)
 number of electron     747.9999998 magnetization     133.2134586
 augmentation part      364.8470776 magnetization     105.2865636

 Broyden mixing:
  rms(total) = 0.16486E+02    rms(broyden)= 0.16486E+02
  rms(prec ) = 0.19066E+02
  weight for this iteration     100.00

 eigenvalues of (default mixing * dielectric matrix)
  average eigenvalue GAMMA=   0.2700
  0.5068  0.3782  0.1137  0.0816

 Free energy of the ion-electron system (eV)
  ---------------------------------------------------
  alpha Z        PSCENC =      1923.82675843
  Ewald energy   TEWEN  =    241510.07696186
  -Hartree energ DENC   =   -307023.51694046
  -exchange      EXHF   =         0.00000000
  -V(xc)+E(xc)   XCENC  =       514.81829678
  PAW double counting   =     68736.62198845   -69657.27029537
  entropy T*S    EENTRO =        -0.03178551
  eigenvalues    EBANDS =      -895.16921170
  atomic energy  EATOM  =     64259.78364355
  Solvation  Ediel_sol  =         0.00000000
  ---------------------------------------------------
  free energy    TOTEN  =      -630.86058397 eV

  energy without entropy =     -630.82879846  energy(sigma->0) =     -630.84998880


--------------------------------------------------------------------------------------------------------




--------------------------------------- Iteration      1(  10)  ---------------------------------------


    POTLOK:  cpu time    0.5390: real time    0.5430
    SETDIJ:  cpu time    0.0324: real time    0.0326
    EDDIAG:  cpu time    3.5520: real time    3.5784
  RMM-DIIS:  cpu time   11.2475: real time   11.3257
    ORTHCH:  cpu time    0.9832: real time    0.9892
       DOS:  cpu time    0.0013: real time    0.0013
    CHARGE:  cpu time    0.6480: real time    0.6518
    MIXING:  cpu time    0.0170: real time    0.0172
    --------------------------------------------
      LOOP:  cpu time   17.0204: real time   17.1392

 eigenvalue-minimisations  :  2101
 total energy-change (2. order) : 0.1256448E+03  (-0.1225126E+02)
 number of electron     747.9999982 magnetization     130.8724270
 augmentation part      369.7550174 magnetization      98.5053205

 Broyden mixing:
  rms(total) = 0.96118E+01    rms(broyden)= 0.96115E+01
  rms(prec ) = 0.11882E+02
  weight for this iteration     100.00

 eigenvalues of (default mixing * dielectric matrix)
  average eigenvalue GAMMA=   0.3170
  0.5980  0.5980  0.1901  0.1316  0.0671

 Free energy of the ion-electron system (eV)
  ---------------------------------------------------
  alpha Z        PSCENC =      1923.82675843
  Ewald energy   TEWEN  =    241510.07696186
  -Hartree energ DENC   =   -306966.15108267
  -exchange      EXHF   =         0.00000000
  -V(xc)+E(xc)   XCENC  =       519.67329812
  PAW double counting   =     69941.66958378   -70872.33651850
  entropy T*S    EENTRO =        -0.01931558
  eigenvalues    EBANDS =      -821.73910444
  atomic energy  EATOM  =     64259.78364355
  Solvation  Ediel_sol  =         0.00000000
  ---------------------------------------------------
  free energy    TOTEN  =      -505.21577546 eV

  energy without entropy =     -505.19645987  energy(sigma->0) =     -505.20933693


--------------------------------------------------------------------------------------------------------




--------------------------------------- Iteration      1(  11)  ---------------------------------------


    POTLOK:  cpu time    0.5224: real time    0.5261
    SETDIJ:  cpu time    0.0338: real time    0.0340
    EDDIAG:  cpu time    3.5714: real time    3.5982
  RMM-DIIS:  cpu time   11.2397: real time   11.3172
    ORTHCH:  cpu time    0.9863: real time    0.9926
       DOS:  cpu time    0.0014: real time    0.0014
    CHARGE:  cpu time    0.6437: real time    0.6478
    MIXING:  cpu time    0.0176: real time    0.0178
    --------------------------------------------
      LOOP:  cpu time   17.0164: real time   17.1351

 eigenvalue-minimisations  :  2108
 total energy-change (2. order) : 0.8194877E+01  (-0.1022048E+02)
 number of electron     747.9999976 magnetization     127.0577103
 augmentation part      367.5942492 magnetization      99.2930146

 Broyden mixing:
  rms(total) = 0.12683E+02    rms(broyden)= 0.12683E+02
  rms(prec ) = 0.14002E+02
  weight for this iteration     100.00

 eigenvalues of (default mixing * dielectric matrix)
  average eigenvalue GAMMA=   0.3688
  1.1450  0.5327  0.2153  0.1453  0.1083  0.0660

 Free energy of the ion-electron system (eV)
  ---------------------------------------------------
  alpha Z        PSCENC =      1923.82675843
  Ewald energy   TEWEN  =    241510.07696186
  -Hartree energ DENC   =   -306923.38455315
  -exchange      EXHF   =         0.00000000
  -V(xc)+E(xc)   XCENC  =       525.83609418
  PAW double counting   =     70677.44440456   -71634.84587394
  entropy T*S    EENTRO =        -0.00777322
  eigenvalues    EBANDS =      -835.75056051
  atomic energy  EATOM  =     64259.78364355
  Solvation  Ediel_sol  =         0.00000000
  ---------------------------------------------------
  free energy    TOTEN  =      -497.02089824 eV

  energy without entropy =     -497.01312502  energy(sigma->0) =     -497.01830717


--------------------------------------------------------------------------------------------------------




--------------------------------------- Iteration      1(  12)  ---------------------------------------


    POTLOK:  cpu time    0.5216: real time    0.5254
    SETDIJ:  cpu time    0.0331: real time    0.0333
[...]
   0.488E+02 -.566E+02 0.279E+04   -.485E+02 0.558E+02 -.279E+04   -.759E+00 0.615E+00 -.184E+01   -.700E-02 -.365E-02 0.414E-02
   -.155E+02 -.552E+02 0.277E+04   0.151E+02 0.547E+02 -.276E+04   0.395E+00 0.480E+00 -.164E+01   0.369E-02 0.137E-01 -.452E-02
   -.962E+01 -.320E+02 0.137E+04   0.937E+01 0.324E+02 -.137E+04   0.300E+00 -.220E+00 -.271E+00   0.214E-03 0.195E-02 -.360E-02
   -.198E+01 0.764E+01 -.228E+02   0.190E+01 -.735E+01 0.229E+02   0.905E-01 -.318E+00 -.947E-01   -.959E-02 -.153E-01 0.697E-03
   -.112E+02 0.174E+02 -.135E+04   0.108E+02 -.171E+02 0.135E+04   0.386E+00 -.262E+00 0.622E+00   0.849E-02 0.270E-02 0.129E-02
   -.206E+02 0.288E+02 -.124E+01   0.208E+02 -.288E+02 0.124E+01   -.219E+00 -.251E-01 -.350E-02   0.152E-02 -.350E-02 -.296E-02
   -.436E+02 -.255E+02 0.125E+04   0.429E+02 0.256E+02 -.125E+04   0.143E+00 0.918E-02 -.413E+00   -.696E-02 -.341E-02 -.776E-03
   -.558E+02 -.400E+02 0.122E+04   0.555E+02 0.398E+02 -.122E+04   0.712E+00 0.221E-01 -.206E+00   0.188E-02 -.450E-02 -.378E-02
   0.752E+02 -.162E+02 -.123E+04   -.748E+02 0.164E+02 0.123E+04   -.423E+00 -.185E+00 -.208E+00   -.246E-02 0.274E-02 0.279E-02
   -.519E+02 0.850E+01 -.246E+04   0.520E+02 -.792E+01 0.246E+04   -.729E-01 -.688E+00 0.206E+01   -.634E-02 -.299E-02 0.678E-03
   0.881E+02 -.141E+02 0.413E+00   -.876E+02 0.139E+02 -.671E+00   -.506E+00 0.172E+00 0.290E+00   0.254E-02 -.116E-01 0.186E-02
   0.296E+02 0.775E-01 0.248E+04   -.288E+02 0.461E+00 -.248E+04   -.923E+00 -.618E+00 -.197E+01   -.605E-02 0.122E-02 -.932E-03
   0.163E+02 0.260E+02 -.279E+00   -.157E+02 -.254E+02 0.349E+00   -.563E+00 -.725E+00 -.232E-01   0.141E-01 -.547E-02 -.197E-02
   -.313E+02 -.226E+02 -.121E+04   0.318E+02 0.226E+02 0.121E+04   -.554E+00 -.637E-01 -.249E+00   0.506E-02 0.580E-02 0.589E-02
   -.826E+02 0.209E+02 -.121E+02   0.822E+02 -.207E+02 0.119E+02   0.452E+00 -.245E+00 0.283E+00   0.646E-02 -.149E-02 -.211E-02
   0.228E+02 0.466E+02 0.247E+04   -.223E+02 -.457E+02 -.246E+04   -.735E+00 -.831E+00 -.237E+01   0.138E-02 -.324E-03 -.540E-03
   -.363E+02 0.618E+02 -.123E+04   0.366E+02 -.618E+02 0.123E+04   -.415E+00 -.497E-01 0.787E+00   -.354E-02 -.705E-02 0.284E-02
   0.177E+02 0.213E+02 0.249E+04   -.181E+02 -.216E+02 -.249E+04   0.556E+00 0.960E-01 -.209E+01   0.180E-01 -.229E-02 -.217E-03
   0.582E+02 0.481E+02 -.123E+04   -.579E+02 -.479E+02 0.123E+04   -.351E+00 -.176E+00 0.564E+00   -.638E-03 0.279E-02 -.671E-02
   -.942E+01 0.332E+01 -.119E+04   0.856E+01 -.333E+01 0.119E+04   0.968E+00 -.753E-01 0.684E+00   0.421E-02 -.928E-02 0.418E-02
   -.519E+02 0.309E+02 -.246E+04   0.519E+02 -.311E+02 0.245E+04   0.184E-01 0.246E+00 0.157E+01   -.932E-02 -.459E-03 0.551E-03
   0.513E+02 -.481E+01 0.251E+04   -.513E+02 0.466E+01 -.251E+04   0.302E+00 -.161E+00 -.194E+01   -.523E-02 -.427E-02 -.228E-02
 -----------------------------------------------------------------------------------------------
   -.172E+01 0.140E+01 -.880E+00   0.597E-12 0.231E-13 0.109E-10   0.177E+01 -.149E+01 0.963E+00   -.509E-01 0.970E-01 -.987E-01
 
 
 POSITION                                       TOTAL-FORCE (eV/Angst)
 -----------------------------------------------------------------------------------
      8.33373     -4.46036      4.23398         0.513665      0.331883      0.437394
      8.32886      3.32035     10.80103        -0.002900      0.002942     -0.016063
      8.31202     -4.48127     10.72321         0.001618     -0.013340      0.000434
      7.51500     -3.13124      2.09805         0.136897      0.398340     -0.500098
      6.03043     -0.53376     10.74771         0.018085     -0.001839      0.004921
      3.07546     -0.58205      2.15628         0.047781      0.164991     -0.498439
      8.36106     -1.88713     10.80038         0.013784     -0.000867     -0.011527
      0.90328      0.65406      8.44689         0.001516     -0.007447      0.008646
      3.92735     -1.85455      4.32687        -0.021895     -0.150652      0.065249
      0.91328      3.32072      8.58492         0.003283      0.001906      0.007357
      3.04081      7.17455      8.52627         0.003707     -0.019480     -0.006830
      5.31432      3.37960      8.56385        -0.004334     -0.022790      0.003995
      3.09722      4.59962      2.16330        -0.047067      0.321453      0.073091
      4.48807      1.93609      6.49168         0.015747     -0.008417      0.001577
      6.04642      1.91593      4.23365         0.250231      0.021853      0.133291
      3.82001      3.32224      4.40218        -0.377526      0.323349     -0.362924
      7.58102      1.96134      8.59438         0.004870     -0.014210      0.010209
      0.15484      4.54467      6.42441         0.001552     -0.020511     -0.011704
      3.12867      7.16206      2.15604         0.360524      0.179258     -0.913774
      3.80307     -1.92780     10.76893         0.005947     -0.009123     -0.006084
      8.37533      0.71798     10.86620         0.013108     -0.006227      0.014087
      6.88781      5.87082      6.49974         0.015591     -0.005773     -0.003068
      0.24217      7.19708      6.54101         0.003963      0.006776     -0.002494
      3.12063      2.01132      2.18591         0.201769     -0.450960     -0.848363
      8.34038      3.29598      4.23554         0.003342     -0.003034      0.576219
      7.56538      1.98149      2.07668         0.251100     -0.005568     -0.809708
      1.67526      7.08523      4.31410        -0.219348      0.113071      0.507823
      4.64506      7.21011      6.47923        -0.016632      0.006068     -0.000625
      6.78291      0.59585      6.45597        -0.006726      0.006891     -0.002357
      1.71286      1.98510     10.70805         0.004759     -0.010067     -0.003565
      0.84297      3.28637      2.23734        -0.233528      0.199043      0.139812
      0.85509      8.51078      2.19548         0.040587      0.151691     -0.281248
      6.06723     -3.21315     10.64485         0.005246     -0.007843     -0.006762
      1.62284      7.16607     10.68435         0.002260     -0.007520     -0.004338
      6.06447      4.66153      4.27310         0.014295     -0.428873     -0.020245
      1.61046      2.01550      4.27436        -0.121098     -0.145271      0.712622
      1.64722     -0.57911     10.65144         0.004535     -0.022918      0.010608
      8.32762      0.59085      4.25284        -0.172221      0.094084     -0.349925
      3.89356      5.79329     10.63769        -0.000653     -0.008571     -0.013366
      3.13321     -0.57711      8.48590        -0.000178     -0.019973      0.006676
      5.38086      5.84493      2.21888        -0.174851      0.035026      0.218848
      3.12939      4.64702      8.51561        -0.008948     -0.010934      0.001483
      1.73228      4.59866     10.72042        -0.004128     -0.014711      0.000582
      4.54460     -0.61073      6.48276        -0.008484     -0.014111      0.003811
      0.83963      0.66842      2.18327        -0.044260     -0.133913      0.009861
      5.21960      0.70648      8.65552        -0.002159     -0.012531     -0.004146
      3.12225      1.98535      8.61864         0.007620     -0.014787      0.005657
      2.34070      8.61399      6.49929        -0.009555     -0.016101     -0.014504
      0.19333      9.76047      6.41700         0.004182     -0.005618     -0.006075
      5.90319      2.11048     10.70704         0.002890     -0.012954     -0.003706
      7.44313     -0.72482      8.57166         0.012509      0.005101      0.006689
      2.49356      5.73851      6.36442        -0.001534     -0.019580      0.001693
      2.31278      0.62514      6.32125         0.007211     -0.002443      0.008671
      3.99472      5.85391      4.33857        -0.129760      0.179664      0.090538
      6.16619     -0.65321      4.18110         0.214317     -0.061856      0.121747
      1.65976     -0.56343      4.28603        -0.009626      0.316754      0.456690
      6.09587      4.64572     10.63054        -0.004841      0.000141      0.008661
      8.31035     -1.82783      4.22173        -0.166281     -0.531154     -0.040566
      5.44071      0.56461      2.11131        -0.427193     -0.219743      0.381760
      0.80946      5.79465      2.24948        -0.056247     -0.025807      0.081803
      6.07581     -3.20015      4.23388        -0.017564      0.257095      0.064218
      2.34506      3.29803      6.49423         0.013174     -0.024280     -0.001526
      7.57501      4.60383      8.57711        -0.001360     -0.020404     -0.003172
      6.85410     -1.92527      6.32564         0.004218     -0.014244      0.021018
      3.85633      0.65710      4.29504        -0.584489      0.042086      0.067604
      1.50379      4.51395      4.28280         0.406076     -0.121036     -0.046109
      0.89288      5.83076      8.70700        -0.008817     -0.008590      0.007588
      3.77739      0.71547     10.58533         0.004191     -0.016022     -0.019897
      0.26663      1.98553      6.35755         0.010213     -0.019320     -0.002091
      5.37586     -1.83263      2.15462        -0.089483     -0.020574      0.039024
      6.87918      3.31049      6.41576         0.000914     -0.006432      0.005126
      5.41882      5.95396      8.70250        -0.009364     -0.012753     -0.013784
      4.55795      4.63690      6.41541        -0.002576     -0.021246      0.017445
      5.41056      3.36969      2.15747        -0.073589      0.088483      0.112442
      5.36810     -1.78112      8.57713        -0.010647     -0.011882     -0.004411
      7.54561      4.63190      2.12191         0.160792     -0.171975     -0.008913
      0.88674      8.54393      8.65322        -0.019863     -0.010444      0.003956
      7.57591     -3.14386      8.57891         0.012437      0.001242     -0.004345
      3.80831      3.30574     10.62547         0.009572      0.006396      0.000624
      7.64773     -0.56083      2.11423         0.279644     -0.288864      0.395199
 -----------------------------------------------------------------------------------
    total drift:                                0.000942      0.009223     -0.015572


--------------------------------------------------------------------------------------------------------



  FREE ENERGIE OF THE ION-ELECTRON SYSTEM (eV)
  ---------------------------------------------------
  free  energy   TOTEN  =      -541.41314419 eV

  energy  without entropy=     -541.44523377  energy(sigma->0) =     -541.42384072
 
 d Force = 0.2182258E-02[ 0.123E-02, 0.314E-02]  d Energy = 0.2210649E-02-0.284E-04
 d Force =-0.8481637E+01[-0.850E+01,-0.846E+01]  d Ewald  =-0.8481634E+01-0.246E-05


--------------------------------------------------------------------------------------------------------


    POTLOK:  cpu time    0.5623: real time    0.5794


--------------------------------------------------------------------------------------------------------


 Conjugate gradient step on ions:
 trial-energy change:   -0.002211  1 .order   -0.002182   -0.003139   -0.001226
  (g-gl).g = 0.199E-02      g.g   = 0.206E-02  gl.gl    = 0.655E-02
 g(Force)  = 0.206E-02   g(Stress)= 0.000E+00 ortho     = 0.177E-04
 gamma     =   0.30359
 trial     =   1.52282
 opt step  =   2.37964  (harmonic =   2.49889) maximal distance =0.00494744
 next E    =  -541.413494   (d E  =  -0.00256)


--------------------------------------------------------------------------------------------------------


  
 reached required accuracy - stopping structural energy minimisation
     LOOP+:  cpu time  262.3761: real time  264.2462
    4ORBIT:  cpu time    0.0000: real time    0.0000
 


 total charge     
 
# of ion       s       p       d       tot
------------------------------------------
    1        0.737   0.670   8.102   9.509
    2        0.737   0.447   8.116   9.299
    3        0.738   0.489   8.095   9.322
    4        0.756   0.503   8.110   9.368
    5        0.743   0.464   8.100   9.307
    6        0.757   0.491   8.116   9.364
    7        0.722   0.451   8.115   9.288
    8        0.741   0.660   8.115   9.516
    9        0.742   0.676   8.106   9.524
   10        0.735   0.670   8.114   9.519
   11        0.732   0.642   8.099   9.472
   12        0.755   0.687   8.119   9.561
   13        0.751   0.468   8.116   9.335
   14        0.754   0.689   8.095   9.537
   15        0.725   0.635   8.113   9.473
   16        0.570   0.640   8.557   9.768
   17        0.532   0.569   8.543   9.644
   18        0.592   0.633   8.544   9.770
   19        0.543   0.437   8.560   9.540
   20        0.525   0.405   8.541   9.471
   21        0.542   0.406   8.547   9.496
   22        0.581   0.613   8.535   9.728
   23        0.557   0.554   8.547   9.658
   24        0.553   0.433   8.560   9.546
   25        0.545   0.581   8.559   9.685
   26        0.565   0.455   8.542   9.562
   27        0.541   0.563   8.542   9.646
   28        0.588   0.648   8.535   9.771
   29        0.558   0.577   8.546   9.681
   30        0.473   0.359   8.342   9.174
   31        0.485   0.368   8.338   9.191
   32        0.462   0.319   8.349   9.130
   33        0.479   0.356   8.345   9.180
   34        0.481   0.351   8.342   9.174
   35        0.473   0.458   8.354   9.284
   36        0.472   0.459   8.351   9.282
   37        0.468   0.351   8.354   9.173
   38        0.480   0.460   8.346   9.287
   39        0.482   0.343   8.342   9.167
   40        0.476   0.477   8.350   9.303
   41        0.491   0.375   8.343   9.210
   42        0.480   0.486   8.365   9.331
   43        0.469   0.342   8.354   9.165
   44        0.486   0.472   8.356   9.314
   45        0.464   0.349   8.337   9.150
   46        0.450   0.464   7.287   8.202
   47        0.451   0.476   7.299   8.227
   48        0.454   0.445   7.268   8.167
   49        0.460   0.468   7.284   8.212
   50        0.438   0.340   7.246   8.024
   51        0.443   0.436   7.265   8.144
   52        0.455   0.435   7.279   8.169
   53        0.468   0.474   7.276   8.217
   54        0.448   0.448   7.270   8.166
   55        0.454   0.464   7.283   8.202
   56        0.442   0.444   7.266   8.153
   57        0.459   0.381   7.263   8.103
   58        0.458   0.469   7.291   8.218
   59        0.453   0.346   7.261   8.060
   60        0.457   0.351   7.248   8.055
   61        0.448   0.462   7.275   8.186
   62        0.464   0.465   7.288   8.217
   63        0.438   0.449   7.281   8.168
   64        0.453   0.444   6.173   7.070
   65        0.445   0.482   6.190   7.116
   66        0.454   0.475   6.188   7.116
   67        0.443   0.452   6.148   7.043
   68        0.477   0.394   6.170   7.041
   69        0.453   0.477   6.201   7.130
   70        0.460   0.397   6.155   7.012
   71        0.430   0.427   6.139   6.996
   72        0.451   0.475   6.195   7.122
   73        0.461   0.474   6.214   7.149
   74        0.443   0.359   6.130   6.933
   75        0.446   0.461   6.188   7.095
   76        0.446   0.364   6.129   6.939
   77        0.446   0.474   6.165   7.085
   78        0.436   0.464   6.202   7.102
   79        0.466   0.392   6.156   7.014
   80        0.468   0.395   6.163   7.026
--------------------------------------------------
tot         42.359  37.707 610.694 690.759
 


 magnetization (x)
 
# of ion       s       p       d       tot
------------------------------------------
    1       -0.023  -0.058   0.389   0.308
    2       -0.013  -0.020   0.264   0.231
    3       -0.010  -0.015   0.288   0.263
    4       -0.023  -0.042   0.355   0.290
    5       -0.013  -0.012   0.317   0.292
    6       -0.010  -0.025   0.368   0.333
    7       -0.010  -0.011   0.234   0.213
    8       -0.032  -0.058   0.359   0.269
    9       -0.022  -0.056   0.415   0.337
   10       -0.026  -0.056   0.361   0.279
   11       -0.032  -0.057   0.403   0.314
   12       -0.035  -0.073   0.397   0.289
   13       -0.013  -0.026   0.360   0.321
   14       -0.022  -0.067   0.323   0.234
   15       -0.029  -0.053   0.386   0.304
   16       -0.025  -0.047   0.275   0.202
   17       -0.028  -0.047   0.332   0.257
   18       -0.024  -0.065   0.307   0.217
   19       -0.013  -0.016   0.259   0.229
   20       -0.013  -0.015   0.192   0.164
   21       -0.013  -0.010   0.193   0.170
   22       -0.034  -0.073   0.319   0.212
   23       -0.026  -0.049   0.283   0.209
   24       -0.021  -0.019   0.244   0.204
   25       -0.025  -0.042   0.260   0.193
   26       -0.027  -0.044   0.307   0.236
   27       -0.029  -0.048   0.352   0.275
   28       -0.025  -0.067   0.300   0.208
   29       -0.019  -0.046   0.246   0.181
   30       -0.013  -0.018   0.625   0.595
   31       -0.019  -0.026   0.752   0.707
   32       -0.016  -0.013   0.716   0.688
   33       -0.016  -0.012   0.741   0.714
   34       -0.011  -0.012   0.630   0.607
   35       -0.026  -0.050   0.770   0.693
   36       -0.025  -0.050   0.774   0.699
   37       -0.014  -0.010   0.666   0.641
   38       -0.019  -0.041   0.734   0.675
   39       -0.016  -0.021   0.647   0.609
   40       -0.027  -0.051   0.748   0.670
   41       -0.021  -0.029   0.734   0.684
   42       -0.025  -0.050   0.691   0.616
   43       -0.016  -0.012   0.670   0.642
   44       -0.018  -0.044   0.678   0.617
   45       -0.012  -0.017   0.713   0.684
   46       -0.013  -0.033   1.704   1.658
   47       -0.013  -0.033   1.648   1.601
   48       -0.007  -0.030   1.746   1.708
   49       -0.008  -0.041   1.685   1.636
   50       -0.002  -0.010   1.832   1.821
   51       -0.014  -0.023   1.809   1.772
   52       -0.013  -0.035   1.729   1.681
   53       -0.014  -0.042   1.730   1.674
   54       -0.010  -0.023   1.781   1.748
   55       -0.019  -0.048   1.783   1.715
   56       -0.010  -0.029   1.755   1.715
   57       -0.001  -0.014   1.696   1.681
   58       -0.018  -0.039   1.728   1.671
   59       -0.007  -0.012   1.836   1.817
   60       -0.003  -0.011   1.835   1.820
   61       -0.012  -0.032   1.740   1.696
   62       -0.006  -0.034   1.694   1.654
   63       -0.013  -0.029   1.721   1.679
   64       -0.003  -0.030   2.813   2.780
   65        0.004  -0.011   2.794   2.788
   66        0.001  -0.023   2.828   2.806
   67        0.006  -0.011   2.901   2.896
   68        0.011  -0.013   2.795   2.792
   69        0.002  -0.021   2.717   2.699
   70        0.012  -0.005   2.899   2.905
   71        0.005  -0.015   2.885   2.875
   72       -0.003  -0.024   2.771   2.744
   73        0.002  -0.024   2.732   2.711
   74        0.016  -0.000   2.959   2.975
   75       -0.005  -0.023   2.817   2.790
   76        0.019  -0.003   2.969   2.986
   77        0.003  -0.015   2.855   2.843
   78       -0.007  -0.026   2.786   2.753
   79        0.012  -0.014   2.855   2.853
   80        0.011  -0.018   2.886   2.879
--------------------------------------------------
tot         -1.027  -2.467 100.093  96.599
 

 total amount of memory used by VASP MPI-rank0   133120. kBytes
=======================================================================

   base      :      30000. kBytes
   nonlr-proj:      21750. kBytes
   fftplans  :      13111. kBytes
   grid      :      38873. kBytes
   one-center:        311. kBytes
   wavefun   :      29075. kBytes
 
  
  
 General timing and accounting informations for this job:
 ========================================================
  
                  Total CPU time used (sec):     8896.354
                            User time (sec):     8884.962
                          System time (sec):       11.393
                         Elapsed time (sec):     8959.943
  
                   Maximum memory used (kb):      678872.
                   Average memory used (kb):           0.
  
                          Minor page faults:      3555425
                          Major page faults:            0
                 Voluntary context switches:         3639
