ML                                      
           1
     8.937646   -5.180215   -0.056711
     0.008019   10.380410    0.035472
    -0.029172    0.028416   22.914279
   Pt   Pd   Ni   Co   Fe
  15  14  16  18  17
Direct configuration=     1
   0.93300842  0.03540458  0.18702892
   0.93702778  0.78212340  0.46577739
   0.93093995  0.03329250  0.46704531
   0.84102530  0.11779868  0.09345992
   0.68332631  0.28621446  0.46477487
   0.34430746  0.11549093  0.09477518
   0.93283811  0.28623642  0.46686684
   0.10681027  0.11474112  0.37629364
   0.43999951  0.04039808  0.18985475
   0.10185610  0.36900861  0.37685808
   0.34418020  0.87393906  0.37407344
   0.59967277  0.60666397  0.37607499
   0.34629138  0.61566042  0.09431243
   0.51490918  0.45128256  0.28422403
   0.67664962  0.52173737  0.18562719
   0.42755634  0.53288925  0.19234824
   0.84131980  0.61394519  0.37736764
   0.02173474  0.45467606  0.27808167
   0.34958585  0.86415956  0.09361907
   0.43156832  0.03763791  0.46463463
   0.93361788  0.52826300  0.46864039
   0.76757161  0.94999062  0.28118743
   0.02251051  0.70425173  0.28297400
   0.34913822  0.36773241  0.09568982
   0.93307916  0.78265223  0.18594076
   0.84621151  0.61292756  0.09177382
   0.18735473  0.77554181  0.18753438
   0.51211358  0.94257576  0.28044734
   0.76124282  0.44652634  0.28359833
   0.18001852  0.28575338  0.46727645
   0.09430783  0.36339053  0.09731050
   0.09520374  0.86713946  0.09470589
   0.68240595  0.03848462  0.46701802
   0.16879052  0.78187670  0.46577955
   0.67843465  0.78712210  0.18694270
   0.18054271  0.28375090  0.18654460
   0.18808014  0.03037959  0.46588981
   0.93188884  0.52145487  0.18709702
   0.41937114  0.78002151  0.46908826
   0.35846883  0.12406208  0.37439150
   0.60158620  0.86302205  0.09698665
   0.35556343  0.61547950  0.37258784
   0.17424825  0.52810761  0.47079640
   0.51448552  0.19618155  0.28350215
   0.09415491  0.11111849  0.09534098
   0.59352826  0.36406197  0.37475104
   0.36109003  0.37532581  0.37463915
   0.26248419  0.95465432  0.28126515
   0.01798222  0.95149086  0.28168931
   0.68394584  0.53142910  0.46747411
   0.84556994  0.36333188  0.37580572
   0.26909381  0.69496931  0.28088109
   0.27717402  0.20673328  0.28069674
   0.44686639  0.78642370  0.18922785
   0.69025987  0.28103529  0.18374033
   0.18628202  0.03817026  0.18744803
   0.68288548  0.77573314  0.46946207
   0.93016373  0.28759311  0.18609696
   0.60872370  0.35791273  0.09309195
   0.09034483  0.60304829  0.09745930
   0.68038046  0.03073797  0.18640674
   0.26873071  0.46022292  0.28411756
   0.85392529  0.87368428  0.37190896
   0.76353266  0.19801826  0.28027515
   0.43183504  0.27828927  0.18807748
   0.16839677  0.51837876  0.18651956
   0.09469600  0.61470130  0.37761482
   0.42298481  0.27552552  0.46320649
   0.02049081  0.20736949  0.28002251
   0.60168503  0.12345510  0.09532779
   0.75832725  0.70328787  0.28318729
   0.60453080  0.86665014  0.37421221
   0.50880128  0.69705070  0.28254284
   0.60511458  0.62633548  0.09468193
   0.60295897  0.12343598  0.37536564
   0.84377682  0.86703614  0.09334830
   0.09208796  0.86642569  0.37568914
   0.84528668  0.11844604  0.37515915
   0.42550519  0.52375303  0.46754869
   0.85564808  0.37271564  0.09380750
Direct configuration=     2
   0.93300842  0.03540458  0.18702892
   0.93278430  0.78561359  0.46939123
   0.92668772  0.02884664  0.46915121
   0.84102530  0.11779868  0.09345992
   0.67686376  0.28439834  0.46658709
   0.34430746  0.11549093  0.09477518
   0.93178116  0.27994113  0.47040566
   0.10961762  0.11703941  0.37153939
   0.43999951  0.04039808  0.18985475
   0.10619621  0.37430361  0.37295470
   0.34191966  0.86424804  0.37254517
   0.59541073  0.61892877  0.37908522
   0.34629138  0.61566042  0.09431243
   0.50769809  0.44388373  0.28192289
   0.67664962  0.52173737  0.18562719
   0.42755634  0.53288925  0.19234824
   0.85031373  0.61425566  0.37415745
   0.01952270  0.44923655  0.27947256
   0.34958585  0.86415956  0.09361907
   0.43110996  0.03449267  0.46842456
   0.93674524  0.53531578  0.47136023
   0.76802126  0.95112405  0.28178528
   0.02224531  0.70721952  0.28366888
   0.34913822  0.36773241  0.09568982
   0.93307916  0.78265223  0.18594076
   0.84621151  0.61292756  0.09177382
   0.18735473  0.77554181  0.18753438
   0.51372159  0.94595995  0.28138391
   0.76377099  0.44232231  0.28258720
   0.18480037  0.28722277  0.46798439
   0.09430783  0.36339053  0.09731050
   0.09520374  0.86713946  0.09470589
   0.68083731  0.03328620  0.46617940
   0.17626904  0.78209053  0.46549633
   0.67843465  0.78712210  0.18694270
   0.18054271  0.28375090  0.18654460
   0.18734573  0.03226757  0.46659977
   0.93188884  0.52145487  0.18709702
   0.42130449  0.77723401  0.46765568
   0.35766406  0.12607526  0.37243799
   0.60158620  0.86302205  0.09698665
   0.35433985  0.61911039  0.37359235
   0.18197299  0.53267461  0.47025643
   0.51349584  0.19607872  0.28376624
   0.09415491  0.11111849  0.09534098
   0.59102800  0.35886690  0.37594853
   0.35488311  0.36873811  0.37575093
   0.26159157  0.95757811  0.28146555
   0.02078460  0.95380357  0.28163281
   0.67897228  0.53093215  0.46790783
   0.84275834  0.35981281  0.37368897
   0.27225536  0.69586745  0.28094697
   0.27064657  0.20100307  0.28040156
   0.44686639  0.78642370  0.18922785
   0.69025987  0.28103529  0.18374033
   0.18628202  0.03817026  0.18744803
   0.68126184  0.77691645  0.46796291
   0.93016373  0.28759311  0.18609696
   0.60872370  0.35791273  0.09309195
   0.09034483  0.60304829  0.09745930
   0.68038046  0.03073797  0.18640674
   0.26658617  0.45661820  0.28420257
   0.85048925  0.87139978  0.37183139
   0.76447830  0.19870616  0.27996243
   0.43183504  0.27828927  0.18807748
   0.16839677  0.51837876  0.18651956
   0.09949466  0.61558138  0.37720754
   0.42361480  0.27977282  0.46268830
   0.02394629  0.20725605  0.27985622
   0.60168503  0.12345510  0.09532779
   0.76353542  0.70682310  0.28206198
   0.60456453  0.86650939  0.37697635
   0.50706939  0.69714887  0.28200935
   0.60511458  0.62633548  0.09468193
   0.60568053  0.12503809  0.37380718
   0.84377682  0.86703614  0.09334830
   0.09520276  0.86840469  0.37436548
   0.84447237  0.11747247  0.37442244
   0.42447159  0.52542913  0.46696730
   0.85564808  0.37271564  0.09380750
Direct configuration=     3
   0.93300842  0.03540458  0.18702892
   0.93210739  0.78617034  0.46996770
   0.92600942  0.02813745  0.46948714
   0.84102530  0.11779868  0.09345992
   0.67583287  0.28410864  0.46687617
   0.34430746  0.11549093  0.09477518
   0.93161255  0.27893692  0.47097017
   0.11006545  0.11740603  0.37078100
   0.43999951  0.04039808  0.18985475
   0.10688853  0.37514826  0.37233205
   0.34155906  0.86270215  0.37230138
   0.59473086  0.62088522  0.37956541
   0.34629138  0.61566042  0.09431243
   0.50654779  0.44270348  0.28155582
   0.67664962  0.52173737  0.18562719
   0.42755634  0.53288925  0.19234824
   0.85174842  0.61430518  0.37364536
   0.01916983  0.44836885  0.27969443
   0.34958585  0.86415956  0.09361907
   0.43103685  0.03399095  0.46902912
   0.93724411  0.53644082  0.47179409
   0.76809299  0.95130486  0.28188065
   0.02220301  0.70769293  0.28377973
   0.34913822  0.36773241  0.09568982
   0.93307916  0.78265223  0.18594076
   0.84621151  0.61292756  0.09177382
   0.18735473  0.77554181  0.18753438
   0.51397810  0.94649979  0.28153331
   0.76417427  0.44165169  0.28242591
   0.18556316  0.28745717  0.46809732
   0.09430783  0.36339053  0.09731050
   0.09520374  0.86713946  0.09470589
   0.68058709  0.03245696  0.46604562
   0.17746199  0.78212464  0.46545115
   0.67843465  0.78712210  0.18694270
   0.18054271  0.28375090  0.18654460
   0.18722858  0.03256873  0.46671302
   0.93188884  0.52145487  0.18709702
   0.42161289  0.77678936  0.46742716
   0.35753569  0.12639639  0.37212637
   0.60158620  0.86302205  0.09698665
   0.35414467  0.61968959  0.37375258
   0.18320522  0.53340313  0.47017030
   0.51333797  0.19606231  0.28380836
   0.09415491  0.11111849  0.09534098
   0.59062917  0.35803819  0.37613955
   0.35389299  0.36768726  0.37592828
   0.26144918  0.95804450  0.28149751
   0.02123163  0.95417249  0.28162379
   0.67817891  0.53085287  0.46797702
   0.84230984  0.35925146  0.37335131
   0.27275968  0.69601072  0.28095748
   0.26960532  0.20008901  0.28035447
   0.44686639  0.78642370  0.18922785
   0.69025987  0.28103529  0.18374033
   0.18628202  0.03817026  0.18744803
   0.68100284  0.77710521  0.46772377
   0.93016373  0.28759311  0.18609696
   0.60872370  0.35791273  0.09309195
   0.09034483  0.60304829  0.09745930
   0.68038046  0.03073797  0.18640674
   0.26624407  0.45604319  0.28421613
   0.84994115  0.87103536  0.37181901
   0.76462915  0.19881589  0.27991255
   0.43183504  0.27828927  0.18807748
   0.16839677  0.51837876  0.18651956
   0.10026013  0.61572177  0.37714257
   0.42371530  0.28045034  0.46260564
   0.02449750  0.20723796  0.27982969
   0.60168503  0.12345510  0.09532779
   0.76436621  0.70738703  0.28188248
   0.60456991  0.86648694  0.37741728
   0.50679313  0.69716452  0.28192425
   0.60511458  0.62633548  0.09468193
   0.60611466  0.12529366  0.37355858
   0.84377682  0.86703614  0.09334830
   0.09569962  0.86872038  0.37415433
   0.84434248  0.11731716  0.37430492
   0.42430672  0.52569650  0.46687456
   0.85564808  0.37271564  0.09380750
Direct configuration=     4
   0.93300842  0.03540458  0.18702892
   0.93148373  0.78481846  0.47087299
   0.92620911  0.02844268  0.46970266
   0.84102530  0.11779868  0.09345992
   0.67684245  0.28490980  0.46788145
   0.34430746  0.11549093  0.09477518
   0.93262460  0.28088360  0.47160150
   0.10731314  0.11708616  0.36986824
   0.43999951  0.04039808  0.18985475
   0.10593282  0.37411838  0.37345495
   0.34156380  0.86087780  0.37239049
   0.59503296  0.62063505  0.37811855
   0.34629138  0.61566042  0.09431243
   0.50667464  0.44128598  0.28350988
   0.67664962  0.52173737  0.18562719
   0.42755634  0.53288925  0.19234824
   0.85031829  0.61492154  0.37388205
   0.01841308  0.44764660  0.27916797
   0.34958585  0.86415956  0.09361907
   0.42842230  0.03003393  0.47021899
   0.93764834  0.53669906  0.47328847
   0.76802604  0.95174407  0.28232653
   0.02439673  0.70900471  0.28283932
   0.34913822  0.36773241  0.09568982
   0.93307916  0.78265223  0.18594076
   0.84621151  0.61292756  0.09177382
   0.18735473  0.77554181  0.18753438
   0.51561374  0.94938688  0.28193455
   0.76194507  0.43924234  0.28150618
   0.18769379  0.28748202  0.46787056
   0.09430783  0.36339053  0.09731050
   0.09520374  0.86713946  0.09470589
   0.67848823  0.02807233  0.46529850
   0.18075565  0.78284263  0.46522287
   0.67843465  0.78712210  0.18694270
   0.18054271  0.28375090  0.18654460
   0.18623952  0.03416422  0.46646930
   0.93188884  0.52145487  0.18709702
   0.42447714  0.77487131  0.46625856
   0.35704980  0.12442675  0.37133533
   0.60158620  0.86302205  0.09698665
   0.35227069  0.62197915  0.37429345
   0.18757200  0.53530717  0.46925016
   0.51212766  0.19571740  0.28377495
   0.09415491  0.11111849  0.09534098
   0.58975994  0.35841516  0.37650213
   0.35298877  0.36653216  0.37652199
   0.26153376  0.96039960  0.28196468
   0.02228945  0.95508361  0.28080239
   0.67480775  0.53136965  0.46774760
   0.84010659  0.35465271  0.37351371
   0.27449407  0.69532639  0.28040898
   0.26455194  0.19528572  0.27931966
   0.44686639  0.78642370  0.18922785
   0.69025987  0.28103529  0.18374033
   0.18628202  0.03817026  0.18744803
   0.68040854  0.78018472  0.46742032
   0.93016373  0.28759311  0.18609696
   0.60872370  0.35791273  0.09309195
   0.09034483  0.60304829  0.09745930
   0.68038046  0.03073797  0.18640674
   0.26600592  0.45424052  0.28350035
   0.84901542  0.86963326  0.37244201
   0.76518508  0.19828011  0.27941121
   0.43183504  0.27828927  0.18807748
   0.16839677  0.51837876  0.18651956
   0.10259619  0.61473286  0.37752208
   0.42359959  0.28207932  0.46223791
   0.02711731  0.20639939  0.27900477
   0.60168503  0.12345510  0.09532779
   0.76639943  0.70746263  0.28146964
   0.60449742  0.86862669  0.37943858
   0.50581735  0.69711219  0.28155565
   0.60511458  0.62633548  0.09468193
   0.60708834  0.12661050  0.37333245
   0.84377682  0.86703614  0.09334830
   0.09824026  0.87174106  0.37445103
   0.84599906  0.11813208  0.37463072
   0.42280850  0.52675624  0.46672194
   0.85564808  0.37271564  0.09380750
Direct configuration=     5
   0.93300842  0.03540458  0.18702892
   0.93105852  0.78389674  0.47149021
   0.92634527  0.02865078  0.46984960
   0.84102530  0.11779868  0.09345992
   0.67753078  0.28545603  0.46856685
   0.34430746  0.11549093  0.09477518
   0.93331461  0.28221085  0.47203194
   0.10543661  0.11686807  0.36924591
   0.43999951  0.04039808  0.18985475
   0.10528121  0.37341620  0.37422055
   0.34156704  0.85963396  0.37245124
   0.59523893  0.62046447  0.37713208
   0.34629138  0.61566042  0.09431243
   0.50676112  0.44031952  0.28484216
   0.67664962  0.52173737  0.18562719
   0.42755634  0.53288925  0.19234824
   0.84934322  0.61534177  0.37404342
   0.01789712  0.44715417  0.27880902
   0.34958585  0.86415956  0.09361907
   0.42663970  0.02733602  0.47103025
   0.93792395  0.53687513  0.47430733
   0.76798040  0.95204353  0.28263054
   0.02589242  0.70989908  0.28219815
   0.34913822  0.36773241  0.09568982
   0.93307916  0.78265223  0.18594076
   0.84621151  0.61292756  0.09177382
   0.18735473  0.77554181  0.18753438
   0.51672892  0.95135530  0.28220812
   0.76042520  0.43759964  0.28087911
   0.18914647  0.28749896  0.46771596
   0.09430783  0.36339053  0.09731050
   0.09520374  0.86713946  0.09470589
   0.67705722  0.02508287  0.46478910
   0.18300128  0.78333217  0.46506723
   0.67843465  0.78712210  0.18694270
   0.18054271  0.28375090  0.18654460
   0.18556518  0.03525202  0.46630313
   0.93188884  0.52145487  0.18709702
   0.42643000  0.77356358  0.46546180
   0.35671852  0.12308384  0.37079599
   0.60158620  0.86302205  0.09698665
   0.35099301  0.62354018  0.37466222
   0.19054928  0.53660536  0.46862281
   0.51130247  0.19548224  0.28375218
   0.09415491  0.11111849  0.09534098
   0.58916730  0.35867218  0.37674934
   0.35237227  0.36574461  0.37692679
   0.26159143  0.96200532  0.28228319
   0.02301068  0.95570482  0.28024235
   0.67250928  0.53172199  0.46759119
   0.83860440  0.35151727  0.37362444
   0.27567659  0.69485981  0.28003501
   0.26110652  0.19201083  0.27861412
   0.44686639  0.78642370  0.18922785
   0.69025987  0.28103529  0.18374033
   0.18628202  0.03817026  0.18744803
   0.68000335  0.78228434  0.46721343
   0.93016373  0.28759311  0.18609696
   0.60872370  0.35791273  0.09309195
   0.09034483  0.60304829  0.09745930
   0.68038046  0.03073797  0.18640674
   0.26584355  0.45301146  0.28301233
   0.84838426  0.86867730  0.37286677
   0.76556412  0.19791482  0.27906939
   0.43183504  0.27828927  0.18807748
   0.16839677  0.51837876  0.18651956
   0.10418892  0.61405861  0.37778082
   0.42352070  0.28318997  0.46198719
   0.02890350  0.20582765  0.27844233
   0.60168503  0.12345510  0.09532779
   0.76778568  0.70751418  0.28118816
   0.60444800  0.87008558  0.38081672
   0.50515206  0.69707650  0.28130434
   0.60511458  0.62633548  0.09468193
   0.60775219  0.12750834  0.37317827
   0.84377682  0.86703614  0.09334830
   0.09997248  0.87380057  0.37465332
   0.84712853  0.11868770  0.37485285
   0.42178701  0.52747878  0.46661788
   0.85564808  0.37271564  0.09380750
Direct configuration=     6
   0.93300842  0.03540458  0.18702892
   0.93200011  0.78358264  0.47149753
   0.92778885  0.03000128  0.46974229
   0.84102530  0.11779868  0.09345992
   0.67662326  0.28434031  0.46878603
   0.34430746  0.11549093  0.09477518
   0.93410804  0.28311435  0.47216380
   0.10344535  0.11563538  0.36998512
   0.43999951  0.04039808  0.18985475
   0.10420182  0.37244086  0.37424948
   0.34232690  0.86249751  0.37223349
   0.59422108  0.62002882  0.37630642
   0.34629138  0.61566042  0.09431243
   0.50494101  0.43948004  0.28473208
   0.67664962  0.52173737  0.18562719
   0.42755634  0.53288925  0.19234824
   0.85023922  0.61506069  0.37433438
   0.01846758  0.44694788  0.27919190
   0.34958585  0.86415956  0.09361907
   0.42692804  0.02761955  0.47110297
   0.93868501  0.53705940  0.47463584
   0.76817716  0.95112025  0.28315538
   0.02643497  0.70890626  0.28289124
   0.34913822  0.36773241  0.09568982
   0.93307916  0.78265223  0.18594076
   0.84621151  0.61292756  0.09177382
   0.18735473  0.77554181  0.18753438
   0.51706073  0.95206589  0.28244844
   0.76060881  0.43756996  0.28135994
   0.18982684  0.28698188  0.46762507
   0.09430783  0.36339053  0.09731050
   0.09520374  0.86713946  0.09470589
   0.67668894  0.02471473  0.46490808
   0.18230447  0.78243821  0.46506805
   0.67843465  0.78712210  0.18694270
   0.18054271  0.28375090  0.18654460
   0.18487567  0.03603437  0.46578600
   0.93188884  0.52145487  0.18709702
   0.42956362  0.77275766  0.46522783
   0.35544669  0.12083874  0.37086911
   0.60158620  0.86302205  0.09698665
   0.35096637  0.62273809  0.37423082
   0.19169178  0.53702267  0.46832516
   0.51037167  0.19533003  0.28351088
   0.09415491  0.11111849  0.09534098
   0.58895831  0.35929249  0.37741664
   0.35210547  0.36585442  0.37726833
   0.26223191  0.96242152  0.28268461
   0.02203675  0.95476891  0.27931442
   0.66982120  0.53230151  0.46749483
   0.83708919  0.34918902  0.37407829
   0.27651126  0.69369106  0.27945609
   0.26046806  0.19141783  0.27740370
   0.44686639  0.78642370  0.18922785
   0.69025987  0.28103529  0.18374033
   0.18628202  0.03817026  0.18744803
   0.67957875  0.78339004  0.46682450
   0.93016373  0.28759311  0.18609696
   0.60872370  0.35791273  0.09309195
   0.09034483  0.60304829  0.09745930
   0.68038046  0.03073797  0.18640674
   0.26453882  0.45153862  0.28302679
   0.84798470  0.86782781  0.37348120
   0.76625428  0.19771483  0.27853301
   0.43183504  0.27828927  0.18807748
   0.16839677  0.51837876  0.18651956
   0.10276319  0.61304117  0.37805113
   0.42363388  0.28235093  0.46184761
   0.03047674  0.20640642  0.27768612
   0.60168503  0.12345510  0.09532779
   0.76826131  0.70657283  0.28097392
   0.60459671  0.87098851  0.38104612
   0.50569245  0.69817464  0.28124021
   0.60511458  0.62633548  0.09468193
   0.60705235  0.12829614  0.37384239
   0.84377682  0.86703614  0.09334830
   0.10099252  0.87477975  0.37519952
   0.84904439  0.11960134  0.37539414
   0.42255227  0.52910481  0.46604927
   0.85564808  0.37271564  0.09380750
Direct configuration=     7
   0.93300842  0.03540458  0.18702892
   0.93253656  0.78340368  0.47150169
   0.92861132  0.03077071  0.46968115
   0.84102530  0.11779868  0.09345992
   0.67610621  0.28370464  0.46891091
   0.34430746  0.11549093  0.09477518
   0.93456009  0.28362910  0.47223893
   0.10231085  0.11493307  0.37040627
   0.43999951  0.04039808  0.18985475
   0.10358686  0.37188516  0.37426597
   0.34275983  0.86412899  0.37210943
   0.59364116  0.61978061  0.37583600
   0.34629138  0.61566042  0.09431243
   0.50390402  0.43900175  0.28466937
   0.67664962  0.52173737  0.18562719
   0.42755634  0.53288925  0.19234824
   0.85074971  0.61490055  0.37450016
   0.01879259  0.44683035  0.27941004
   0.34958585  0.86415956  0.09361907
   0.42709232  0.02778108  0.47114440
   0.93911862  0.53716438  0.47482301
   0.76828926  0.95059422  0.28345441
   0.02674408  0.70834061  0.28328612
   0.34913822  0.36773241  0.09568982
   0.93307916  0.78265223  0.18594076
   0.84621151  0.61292756  0.09177382
   0.18735473  0.77554181  0.18753438
   0.51724977  0.95247075  0.28258537
   0.76071343  0.43755305  0.28163388
   0.19021447  0.28668728  0.46757328
   0.09430783  0.36339053  0.09731050
   0.09520374  0.86713946  0.09470589
   0.67647912  0.02450499  0.46497586
   0.18190747  0.78192889  0.46506852
   0.67843465  0.78712210  0.18694270
   0.18054271  0.28375090  0.18654460
   0.18448282  0.03648010  0.46549136
   0.93188884  0.52145487  0.18709702
   0.43134897  0.77229850  0.46509452
   0.35472209  0.11955961  0.37091077
   0.60158620  0.86302205  0.09698665
   0.35095119  0.62228111  0.37398504
   0.19234270  0.53726043  0.46815558
   0.50984136  0.19524332  0.28337341
   0.09415491  0.11111849  0.09534098
   0.58883923  0.35964591  0.37779683
   0.35195347  0.36591698  0.37746292
   0.26259681  0.96265864  0.28291332
   0.02148186  0.95423568  0.27878574
   0.66828969  0.53263169  0.46743993
   0.83622592  0.34786252  0.37433686
   0.27698681  0.69302517  0.27912626
   0.26010430  0.19107998  0.27671407
   0.44686639  0.78642370  0.18922785
   0.69025987  0.28103529  0.18374033
   0.18628202  0.03817026  0.18744803
   0.67933684  0.78402000  0.46660292
   0.93016373  0.28759311  0.18609696
   0.60872370  0.35791273  0.09309195
   0.09034483  0.60304829  0.09745930
   0.68038046  0.03073797  0.18640674
   0.26379546  0.45069949  0.28303503
   0.84775705  0.86734383  0.37383126
   0.76664750  0.19760089  0.27822741
   0.43183504  0.27828927  0.18807748
   0.16839677  0.51837876  0.18651956
   0.10195090  0.61246149  0.37820513
   0.42369837  0.28187290  0.46176809
   0.03137307  0.20673618  0.27725528
   0.60168503  0.12345510  0.09532779
   0.76853230  0.70603652  0.28085186
   0.60468144  0.87150294  0.38117681
   0.50600034  0.69880030  0.28120367
   0.60511458  0.62633548  0.09468193
   0.60665362  0.12874498  0.37422076
   0.84377682  0.86703614  0.09334830
   0.10157367  0.87533763  0.37551071
   0.85013592  0.12012188  0.37570254
   0.42298827  0.53003122  0.46572531
   0.85564808  0.37271564  0.09380750
Direct configuration=     8
   0.93300842  0.03540458  0.18702892
   0.93274997  0.78448401  0.47146955
   0.92889825  0.03034172  0.47002713
   0.84102530  0.11779868  0.09345992
   0.67634743  0.28410464  0.46927609
   0.34430746  0.11549093  0.09477518
   0.93500487  0.28387636  0.47253522
   0.10281070  0.11453066  0.36960401
   0.43999951  0.04039808  0.18985475
   0.10364395  0.37158449  0.37407115
   0.34215757  0.86303456  0.37217106
   0.59436978  0.62046918  0.37545928
   0.34629138  0.61566042  0.09431243
   0.50283349  0.43789414  0.28416087
   0.67664962  0.52173737  0.18562719
   0.42755634  0.53288925  0.19234824
   0.85058872  0.61399529  0.37502500
   0.01838480  0.44663052  0.27959936
   0.34958585  0.86415956  0.09361907
   0.42679426  0.02766086  0.47113571
   0.93867743  0.53628077  0.47487173
   0.76868345  0.95009626  0.28386797
   0.02761384  0.70822357  0.28384042
   0.34913822  0.36773241  0.09568982
   0.93307916  0.78265223  0.18594076
   0.84621151  0.61292756  0.09177382
   0.18735473  0.77554181  0.18753438
   0.51811737  0.95286167  0.28250602
   0.76048946  0.43743332  0.28228614
   0.19090817  0.28665949  0.46765444
   0.09430783  0.36339053  0.09731050
   0.09520374  0.86713946  0.09470589
   0.67734269  0.02597000  0.46552759
   0.18159519  0.78119023  0.46503490
   0.67843465  0.78712210  0.18694270
   0.18054271  0.28375090  0.18654460
   0.18490784  0.03668835  0.46535634
   0.93188884  0.52145487  0.18709702
   0.43336579  0.77258445  0.46506431
   0.35373282  0.11961704  0.37104595
   0.60158620  0.86302205  0.09698665
   0.35046981  0.62216981  0.37321781
   0.19252758  0.53747002  0.46801896
   0.50967808  0.19580399  0.28332543
   0.09415491  0.11111849  0.09534098
   0.58809970  0.35998514  0.37815128
   0.35120711  0.36549033  0.37747097
   0.26207811  0.96194299  0.28289798
   0.02106497  0.95328954  0.27861791
   0.66624200  0.53290659  0.46745541
   0.83546563  0.34709187  0.37463843
   0.27748256  0.69236043  0.27877232
   0.25992899  0.19092073  0.27640724
   0.44686639  0.78642370  0.18922785
   0.69025987  0.28103529  0.18374033
   0.18628202  0.03817026  0.18744803
   0.67999559  0.78435075  0.46608351
   0.93016373  0.28759311  0.18609696
   0.60872370  0.35791273  0.09309195
   0.09034483  0.60304829  0.09745930
   0.68038046  0.03073797  0.18640674
   0.26319907  0.44973799  0.28319927
   0.84705787  0.86621270  0.37434596
   0.76722545  0.19744886  0.27783492
   0.43183504  0.27828927  0.18807748
   0.16839677  0.51837876  0.18651956
   0.10168620  0.61296887  0.37850315
   0.42377802  0.28080850  0.46182022
   0.03179476  0.20667411  0.27714095
   0.60168503  0.12345510  0.09532779
   0.76862893  0.70478243  0.28083230
   0.60510084  0.87218310  0.38058422
   0.50711104  0.69980718  0.28107255
   0.60511458  0.62633548  0.09468193
   0.60521487  0.12856570  0.37465255
   0.84377682  0.86703614  0.09334830
   0.10143752  0.87485120  0.37582837
   0.85035650  0.12009435  0.37586458
   0.42439254  0.53085496  0.46517100
   0.85564808  0.37271564  0.09380750
Direct configuration=     9
   0.93300842  0.03540458  0.18702892
   0.93288876  0.78518662  0.47144864
   0.92908487  0.03006273  0.47025215
   0.84102530  0.11779868  0.09345992
   0.67650431  0.28436479  0.46951358
   0.34430746  0.11549093  0.09477518
   0.93529414  0.28403716  0.47272791
   0.10313579  0.11426895  0.36908225
   0.43999951  0.04039808  0.18985475
   0.10368109  0.37138895  0.37394445
   0.34176588  0.86232278  0.37221114
   0.59484365  0.62091701  0.37521427
   0.34629138  0.61566042  0.09431243
   0.50213726  0.43717378  0.28383017
   0.67664962  0.52173737  0.18562719
   0.42755634  0.53288925  0.19234824
   0.85048402  0.61340655  0.37536633
   0.01811958  0.44650055  0.27972249
   0.34958585  0.86415956  0.09361907
   0.42660041  0.02758267  0.47113006
   0.93839050  0.53570610  0.47490342
   0.76893982  0.94977240  0.28413694
   0.02817950  0.70814746  0.28420092
   0.34913822  0.36773241  0.09568982
   0.93307916  0.78265223  0.18594076
   0.84621151  0.61292756  0.09177382
   0.18735473  0.77554181  0.18753438
   0.51868163  0.95311592  0.28245442
   0.76034379  0.43735544  0.28271035
   0.19135933  0.28664141  0.46770722
   0.09430783  0.36339053  0.09731050
   0.09520374  0.86713946  0.09470589
   0.67790433  0.02692280  0.46588641
   0.18139209  0.78070984  0.46501303
   0.67843465  0.78712210  0.18694270
   0.18054271  0.28375090  0.18654460
   0.18518426  0.03682379  0.46526853
   0.93188884  0.52145487  0.18709702
   0.43467746  0.77277043  0.46504467
   0.35308944  0.11965439  0.37113386
   0.60158620  0.86302205  0.09698665
   0.35015674  0.62209743  0.37271882
   0.19264781  0.53760632  0.46793010
   0.50957189  0.19616864  0.28329422
   0.09415491  0.11111849  0.09534098
   0.58761874  0.36020577  0.37838181
   0.35072171  0.36521285  0.37747620
   0.26174077  0.96147755  0.28288800
   0.02079384  0.95267420  0.27850877
   0.66491026  0.53308539  0.46746548
   0.83497116  0.34659066  0.37483455
   0.27780498  0.69192811  0.27854213
   0.25981497  0.19081715  0.27620768
   0.44686639  0.78642370  0.18922785
   0.69025987  0.28103529  0.18374033
   0.18628202  0.03817026  0.18744803
   0.68042402  0.78456586  0.46574570
   0.93016373  0.28759311  0.18609696
   0.60872370  0.35791273  0.09309195
   0.09034483  0.60304829  0.09745930
   0.68038046  0.03073797  0.18640674
   0.26281120  0.44911267  0.28330609
   0.84660316  0.86547705  0.37468070
   0.76760132  0.19734998  0.27757966
   0.43183504  0.27828927  0.18807748
   0.16839677  0.51837876  0.18651956
   0.10151405  0.61329885  0.37869696
   0.42382982  0.28011626  0.46185413
   0.03206901  0.20663375  0.27706660
   0.60168503  0.12345510  0.09532779
   0.76869178  0.70396681  0.28081958
   0.60537359  0.87262545  0.38019882
   0.50783339  0.70046202  0.28098728
   0.60511458  0.62633548  0.09468193
   0.60427916  0.12844910  0.37493337
   0.84377682  0.86703614  0.09334830
   0.10134897  0.87453484  0.37603497
   0.85049996  0.12007645  0.37596996
   0.42530583  0.53139069  0.46481050
   0.85564808  0.37271564  0.09380750
Direct configuration=    10
   0.93300842  0.03540458  0.18702892
   0.93284529  0.78407113  0.47168302
   0.92956667  0.03152324  0.47037051
   0.84102530  0.11779868  0.09345992
   0.67634637  0.28477051  0.46989954
   0.34430746  0.11549093  0.09477518
   0.93598411  0.28326562  0.47289993
   0.10299035  0.11392282  0.36855817
   0.43999951  0.04039808  0.18985475
   0.10346504  0.37100267  0.37427837
   0.34172847  0.86116721  0.37201724
   0.59466052  0.62056709  0.37445075
   0.34629138  0.61566042  0.09431243
   0.50240705  0.43727816  0.28410964
   0.67664962  0.52173737  0.18562719
   0.42755634  0.53288925  0.19234824
   0.84975630  0.61271869  0.37589743
   0.01747574  0.44630124  0.27961266
   0.34958585  0.86415956  0.09361907
   0.42644711  0.02698792  0.47111597
   0.93794289  0.53626183  0.47503182
   0.76990764  0.94971950  0.28418124
   0.02837974  0.70808222  0.28434190
   0.34913822  0.36773241  0.09568982
   0.93307916  0.78265223  0.18594076
   0.84621151  0.61292756  0.09177382
   0.18735473  0.77554181  0.18753438
   0.51889423  0.95357092  0.28256463
   0.75968359  0.43691203  0.28294130
   0.19184197  0.28661552  0.46767359
   0.09430783  0.36339053  0.09731050
   0.09520374  0.86713946  0.09470589
   0.67894425  0.02803294  0.46617370
   0.18145416  0.78034130  0.46518300
   0.67843465  0.78712210  0.18694270
   0.18054271  0.28375090  0.18654460
   0.18561558  0.03670773  0.46526274
   0.93188884  0.52145487  0.18709702
   0.43580678  0.77361837  0.46487518
   0.35281762  0.12008527  0.37109439
   0.60158620  0.86302205  0.09698665
   0.35030111  0.62222200  0.37213215
   0.19307880  0.53792022  0.46772942
   0.50950471  0.19581276  0.28347402
   0.09415491  0.11111849  0.09534098
   0.58637229  0.36010499  0.37847378
   0.35068671  0.36527903  0.37712710
   0.26156885  0.96099145  0.28279645
   0.02079994  0.95150600  0.27852088
   0.66349039  0.53293717  0.46770090
   0.83460330  0.34601022  0.37512286
   0.27820397  0.69166833  0.27813412
   0.25967900  0.19014884  0.27612229
   0.44686639  0.78642370  0.18922785
   0.69025987  0.28103529  0.18374033
   0.18628202  0.03817026  0.18744803