       N       E                     dE             d eps       ncg     rms          rms(c)
DAV:   1     0.677678759534E+04    0.67768E+04   -0.31572E+05  2096   0.144E+03
DAV:   2     0.395693395284E+03   -0.63811E+04   -0.58260E+04  2096   0.354E+02
DAV:   3    -0.467980677753E+03   -0.86367E+03   -0.70943E+03  2272   0.154E+02
DAV:   4    -0.538571135369E+03   -0.70590E+02   -0.66504E+02  2352   0.457E+01
DAV:   5    -0.540386108446E+03   -0.18150E+01   -0.18081E+01  2408   0.765E+00    0.107E+02
RMM:   6    -0.695106443094E+03   -0.15472E+03   -0.90422E+02  2103   0.698E+01    0.178E+02
RMM:   7    -0.527082050114E+03    0.16802E+03   -0.27889E+02  2098   0.344E+01    0.114E+02
RMM:   8    -0.694925323309E+03   -0.16784E+03   -0.12621E+02  2098   0.225E+01    0.180E+02
RMM:   9    -0.628695957128E+03    0.66229E+02   -0.12423E+02  2099   0.232E+01    0.171E+02
RMM:  10    -0.490549417709E+03    0.13815E+03   -0.12281E+02  2103   0.241E+01    0.908E+01
RMM:  11    -0.523270133316E+03   -0.32721E+02   -0.12124E+02  2099   0.239E+01    0.143E+02
RMM:  12    -0.488930054913E+03    0.34340E+02   -0.78635E+01  2100   0.198E+01    0.128E+02
RMM:  13    -0.449245441315E+03    0.39685E+02   -0.61516E+01  2099   0.176E+01    0.812E+01
RMM:  14    -0.439570541164E+03    0.96749E+01   -0.22524E+01  2100   0.103E+01    0.762E+01
RMM:  15    -0.436265152977E+03    0.33054E+01   -0.17033E+01  2100   0.865E+00    0.605E+01
RMM:  16    -0.433222823040E+03    0.30423E+01   -0.12153E+01  2100   0.748E+00    0.532E+01
RMM:  17    -0.436641029855E+03   -0.34182E+01   -0.11433E+01  2100   0.699E+00    0.549E+01
RMM:  18    -0.435615019953E+03    0.10260E+01   -0.79375E+00  2100   0.616E+00    0.393E+01
RMM:  19    -0.435815708747E+03   -0.20069E+00   -0.39572E+00  2100   0.408E+00    0.304E+01
RMM:  20    -0.442674328635E+03   -0.68586E+01   -0.41960E+00  2100   0.389E+00    0.363E+01
RMM:  21    -0.445707267917E+03   -0.30329E+01   -0.32607E+00  2100   0.348E+00    0.293E+01
RMM:  22    -0.452910692824E+03   -0.72034E+01   -0.35164E+00  2100   0.350E+00    0.336E+01
RMM:  23    -0.457753074755E+03   -0.48424E+01   -0.44253E+00  2100   0.397E+00    0.265E+01
RMM:  24    -0.464422710426E+03   -0.66696E+01   -0.46330E+00  2099   0.399E+00    0.268E+01
RMM:  25    -0.468171408796E+03   -0.37487E+01   -0.36409E+00  2099   0.343E+00    0.242E+01
RMM:  26    -0.472748887397E+03   -0.45775E+01   -0.38221E+00  2100   0.355E+00    0.244E+01
RMM:  27    -0.475965460174E+03   -0.32166E+01   -0.34633E+00  2099   0.317E+00    0.224E+01
RMM:  28    -0.476449339269E+03   -0.48388E+00   -0.11823E+00  2100   0.204E+00    0.130E+01
RMM:  29    -0.478240962726E+03   -0.17916E+01   -0.86628E-01  2099   0.160E+00    0.168E+01
RMM:  30    -0.479144970108E+03   -0.90401E+00   -0.56497E-01  2099   0.129E+00    0.116E+01
RMM:  31    -0.480670413188E+03   -0.15254E+01   -0.67124E-01  2099   0.141E+00    0.150E+01
RMM:  32    -0.481475510333E+03   -0.80510E+00   -0.57943E-01  2099   0.128E+00    0.105E+01
RMM:  33    -0.482453444547E+03   -0.97793E+00   -0.48999E-01  2099   0.120E+00    0.104E+01
RMM:  34    -0.483420398702E+03   -0.96695E+00   -0.47833E-01  2099   0.109E+00    0.106E+01
RMM:  35    -0.483872799935E+03   -0.45240E+00   -0.27475E-01  2100   0.921E-01    0.994E+00
RMM:  36    -0.484531761064E+03   -0.65896E+00   -0.29488E-01  2099   0.868E-01    0.779E+00
RMM:  37    -0.485014026585E+03   -0.48227E+00   -0.27034E-01  2099   0.921E-01    0.779E+00
RMM:  38    -0.485509291837E+03   -0.49527E+00   -0.22796E-01  2099   0.785E-01    0.668E+00
RMM:  39    -0.485703774313E+03   -0.19448E+00   -0.12452E-01  2100   0.662E-01    0.556E+00
RMM:  40    -0.486112018608E+03   -0.40824E+00   -0.14526E-01  2099   0.676E-01    0.689E+00
RMM:  41    -0.486292924330E+03   -0.18091E+00   -0.10484E-01  2099   0.566E-01    0.435E+00
RMM:  42    -0.486574707489E+03   -0.28178E+00   -0.10257E-01  2099   0.580E-01    0.530E+00
RMM:  43    -0.486874037597E+03   -0.29933E+00   -0.10604E-01  2099   0.508E-01    0.409E+00
RMM:  44    -0.486997258201E+03   -0.12322E+00   -0.51204E-02  2100   0.414E-01    0.359E+00
RMM:  45    -0.487141974763E+03   -0.14472E+00   -0.44311E-02  2099   0.351E-01    0.358E+00
RMM:  46    -0.487201029183E+03   -0.59054E-01   -0.29687E-02  2100   0.316E-01    0.310E+00
RMM:  47    -0.487256901585E+03   -0.55872E-01   -0.27224E-02  2099   0.295E-01    0.323E+00
RMM:  48    -0.487282553952E+03   -0.25652E-01   -0.22275E-02  2100   0.275E-01    0.242E+00
RMM:  49    -0.487306707949E+03   -0.24154E-01   -0.15642E-02  2099   0.237E-01    0.258E+00
RMM:  50    -0.487317816015E+03   -0.11108E-01   -0.11467E-02  2100   0.196E-01    0.198E+00
RMM:  51    -0.487392616577E+03   -0.74801E-01   -0.26117E-02  2099   0.314E-01    0.277E+00
RMM:  52    -0.487394560779E+03   -0.19442E-02   -0.13399E-02  2100   0.224E-01    0.166E+00
RMM:  53    -0.487405219912E+03   -0.10659E-01   -0.11263E-02  2100   0.196E-01    0.174E+00
RMM:  54    -0.487419953020E+03   -0.14733E-01   -0.95100E-03  2100   0.167E-01    0.100E+00
RMM:  55    -0.487433833270E+03   -0.13880E-01   -0.48034E-03  2099   0.133E-01    0.101E+00
RMM:  56    -0.487471032110E+03   -0.37199E-01   -0.55441E-03  2100   0.136E-01    0.144E+00
RMM:  57    -0.487474444706E+03   -0.34126E-02   -0.16969E-03  2100   0.788E-02    0.111E+00
RMM:  58    -0.487479571413E+03   -0.51267E-02   -0.14755E-03  2099   0.734E-02    0.900E-01
RMM:  59    -0.487501051283E+03   -0.21480E-01   -0.29048E-03  2100   0.100E-01    0.720E-01
RMM:  60    -0.487527761065E+03   -0.26710E-01   -0.26066E-03  2100   0.948E-02    0.569E-01
RMM:  61    -0.487543245718E+03   -0.15485E-01   -0.16194E-03  2100   0.776E-02    0.498E-01
RMM:  62    -0.487561997333E+03   -0.18752E-01   -0.96258E-04  2100   0.623E-02    0.426E-01
RMM:  63    -0.487587235032E+03   -0.25238E-01   -0.79326E-04  2100   0.500E-02    0.315E-01
RMM:  64    -0.487610258057E+03   -0.23023E-01   -0.75486E-04  2100   0.469E-02    0.298E-01
RMM:  65    -0.487630277672E+03   -0.20020E-01   -0.48105E-04  2100   0.373E-02    0.174E-01
RMM:  66    -0.487650009838E+03   -0.19732E-01   -0.67558E-04  2100   0.504E-02    0.413E-01
RMM:  67    -0.487673882553E+03   -0.23873E-01   -0.52257E-04  2100   0.388E-02    0.179E-01
RMM:  68    -0.487683021740E+03   -0.91392E-02   -0.15444E-04  2098   0.210E-02    0.193E-01
RMM:  69    -0.487702565169E+03   -0.19543E-01   -0.23170E-04  2098   0.204E-02    0.141E-01
RMM:  70    -0.487719263023E+03   -0.16698E-01   -0.17229E-04  2096   0.184E-02    0.126E-01
RMM:  71    -0.487733200751E+03   -0.13938E-01   -0.13458E-04  2100   0.202E-02    0.166E-01
RMM:  72    -0.487751968667E+03   -0.18768E-01   -0.20244E-04  2098   0.186E-02    0.133E-01
RMM:  73    -0.487764471283E+03   -0.12503E-01   -0.12615E-04  2097   0.146E-02    0.858E-02
RMM:  74    -0.487776838364E+03   -0.12367E-01   -0.12434E-04  2096   0.136E-02    0.949E-02
RMM:  75    -0.487793465741E+03   -0.16627E-01   -0.31526E-04  2098   0.176E-02    0.905E-02
RMM:  76    -0.487797063090E+03   -0.35973E-02   -0.95224E-05  2098   0.165E-02    0.121E-01
RMM:  77    -0.487804077024E+03   -0.70139E-02   -0.16766E-04  2096   0.153E-02    0.745E-02
RMM:  78    -0.487807886201E+03   -0.38092E-02   -0.96221E-05  2096   0.112E-02    0.668E-02
RMM:  79    -0.487810152998E+03   -0.22668E-02   -0.53642E-05  2069   0.809E-03    0.497E-02
RMM:  80    -0.487811434245E+03   -0.12812E-02   -0.25696E-05  1931   0.644E-03    0.382E-02
RMM:  81    -0.487812004127E+03   -0.56988E-03   -0.14167E-05  1949   0.663E-03    0.445E-02
RMM:  82    -0.487813034666E+03   -0.10305E-02   -0.17884E-05  1869   0.561E-03    0.239E-02
RMM:  83    -0.487813606296E+03   -0.57163E-03   -0.78268E-06  1742   0.373E-03    0.236E-02
RMM:  84    -0.487813717834E+03   -0.11154E-03   -0.33736E-06  1480   0.282E-03    0.174E-02
RMM:  85    -0.487813792161E+03   -0.74327E-04   -0.39399E-06  1491   0.253E-03    0.103E-02
RMM:  86    -0.487813806831E+03   -0.14670E-04   -0.12531E-06  1285   0.216E-03    0.143E-02
RMM:  87    -0.487813824283E+03   -0.17452E-04   -0.21032E-06  1402   0.199E-03    0.741E-03
RMM:  88    -0.487813835292E+03   -0.11009E-04   -0.94584E-07  1303   0.134E-03    0.691E-03
RMM:  89    -0.487813840184E+03   -0.48917E-05   -0.50113E-07  1226   0.123E-03    0.600E-03
RMM:  90    -0.487813844983E+03   -0.47984E-05   -0.63891E-07  1257   0.109E-03    0.560E-03
RMM:  91    -0.487813848186E+03   -0.32033E-05   -0.25295E-07  1145   0.988E-04    0.515E-03
RMM:  92    -0.487813849305E+03   -0.11193E-05   -0.15936E-07  1107   0.814E-04    0.472E-03
RMM:  93    -0.487813849196E+03    0.10867E-06   -0.13958E-07  1046   0.609E-04
   1 F= -.52351022E+03 E0= -.52351809E+03  d E =-.523510E+03  mag=    86.0294
       N       E                     dE             d eps       ncg     rms          rms(c)
DAV:   1    -0.476668674227E+03    0.11145E+02   -0.58692E+03  2096   0.935E+01    0.271E+01
RMM:   2    -0.520533322268E+03   -0.43865E+02   -0.23954E+02  2101   0.334E+01    0.773E+01
RMM:   3    -0.516593963851E+03    0.39394E+01   -0.49879E+01  2203   0.139E+01    0.683E+01
RMM:   4    -0.509256230881E+03    0.73377E+01   -0.15034E+01  2106   0.761E+00    0.565E+01
RMM:   5    -0.498161202237E+03    0.11095E+02   -0.87754E+00  2100   0.584E+00    0.366E+01
RMM:   6    -0.496237949985E+03    0.19233E+01   -0.59874E+00  2100   0.510E+00    0.282E+01
RMM:   7    -0.496369404819E+03   -0.13145E+00   -0.29218E+00  2100   0.363E+00    0.268E+01
RMM:   8    -0.494674855087E+03    0.16945E+01   -0.15480E+00  2100   0.263E+00    0.143E+01
RMM:   9    -0.495464320867E+03   -0.78947E+00   -0.17113E+00  2100   0.268E+00    0.211E+01
RMM:  10    -0.495013864078E+03    0.45046E+00   -0.17554E+00  2101   0.266E+00    0.181E+01
RMM:  11    -0.494575049293E+03    0.43881E+00   -0.15098E+00  2100   0.254E+00    0.144E+01
RMM:  12    -0.494674609738E+03   -0.99560E-01   -0.84155E-01  2101   0.183E+00    0.161E+01
RMM:  13    -0.494152020724E+03    0.52259E+00   -0.46136E-01  2100   0.142E+00    0.741E+00
RMM:  14    -0.494099288183E+03    0.52733E-01   -0.22120E-01  2100   0.959E-01    0.650E+00
RMM:  15    -0.494122737606E+03   -0.23449E-01   -0.18798E-01  2100   0.872E-01    0.689E+00
RMM:  16    -0.494038717467E+03    0.84020E-01   -0.12563E-01  2100   0.738E-01    0.385E+00
RMM:  17    -0.494014673776E+03    0.24044E-01   -0.67814E-02  2100   0.530E-01    0.307E+00
RMM:  18    -0.494009846063E+03    0.48277E-02   -0.33103E-02  2100   0.370E-01    0.261E+00
RMM:  19    -0.494012405040E+03   -0.25590E-02   -0.20835E-02  2101   0.290E-01    0.241E+00
RMM:  20    -0.494012117819E+03    0.28722E-03   -0.10858E-02  2100   0.213E-01    0.173E+00
RMM:  21    -0.494018087447E+03   -0.59696E-02   -0.81451E-03  2101   0.179E-01    0.157E+00
RMM:  22    -0.494021537880E+03   -0.34504E-02   -0.78343E-03  2101   0.178E-01    0.110E+00
RMM:  23    -0.494028797328E+03   -0.72594E-02   -0.58229E-03  2100   0.153E-01    0.111E+00
RMM:  24    -0.494030899487E+03   -0.21022E-02   -0.32324E-03  2100   0.119E-01    0.582E-01
RMM:  25    -0.494037032145E+03   -0.61327E-02   -0.18630E-03  2100   0.878E-02    0.799E-01
RMM:  26    -0.494040764064E+03   -0.37319E-02   -0.12545E-03  2100   0.723E-02    0.462E-01
RMM:  27    -0.494044524176E+03   -0.37601E-02   -0.82967E-04  2100   0.585E-02    0.350E-01
RMM:  28    -0.494051373716E+03   -0.68495E-02   -0.67757E-04  2100   0.504E-02    0.358E-01
RMM:  29    -0.494054206584E+03   -0.28329E-02   -0.39841E-04  2100   0.411E-02    0.189E-01
RMM:  30    -0.494057001723E+03   -0.27951E-02   -0.20786E-04  2099   0.290E-02    0.203E-01
RMM:  31    -0.494059773822E+03   -0.27721E-02   -0.15228E-04  2100   0.246E-02    0.158E-01
RMM:  32    -0.494061425436E+03   -0.16516E-02   -0.99118E-05  2098   0.201E-02    0.148E-01
RMM:  33    -0.494063606881E+03   -0.21814E-02   -0.83341E-05  2100   0.181E-02    0.100E-01
RMM:  34    -0.494064967273E+03   -0.13604E-02   -0.71894E-05  2096   0.170E-02    0.115E-01
RMM:  35    -0.494066010349E+03   -0.10431E-02   -0.42033E-05  2097   0.130E-02    0.829E-02
RMM:  36    -0.494066851876E+03   -0.84153E-03   -0.39283E-05  2097   0.127E-02    0.967E-02
RMM:  37    -0.494067775580E+03   -0.92370E-03   -0.28808E-05  2096   0.105E-02    0.754E-02
RMM:  38    -0.494068445577E+03   -0.67000E-03   -0.23972E-05  2095   0.965E-03    0.563E-02
RMM:  39    -0.494069307144E+03   -0.86157E-03   -0.23504E-05  2096   0.919E-03    0.695E-02
RMM:  40    -0.494069871866E+03   -0.56472E-03   -0.17121E-05  2063   0.806E-03    0.382E-02
RMM:  41    -0.494070479890E+03   -0.60802E-03   -0.15015E-05  2070   0.689E-03    0.544E-02
RMM:  42    -0.494070892006E+03   -0.41212E-03   -0.12943E-05  1973   0.641E-03    0.299E-02
RMM:  43    -0.494071124220E+03   -0.23221E-03   -0.96583E-06  1892   0.547E-03    0.384E-02
RMM:  44    -0.494071241280E+03   -0.11706E-03   -0.76106E-06  1799   0.474E-03    0.204E-02
RMM:  45    -0.494071262964E+03   -0.21684E-04   -0.25288E-06  1455   0.317E-03    0.194E-02
RMM:  46    -0.494071272373E+03   -0.94094E-05   -0.19961E-06  1377   0.275E-03    0.140E-02
RMM:  47    -0.494071293160E+03   -0.20787E-04   -0.17331E-06  1299   0.263E-03    0.152E-02
RMM:  48    -0.494071280761E+03    0.12400E-04   -0.11717E-06  1311   0.220E-03    0.107E-02
RMM:  49    -0.494071277162E+03    0.35986E-05   -0.62480E-07  1209   0.181E-03    0.777E-03
RMM:  50    -0.494071275481E+03    0.16812E-05   -0.37312E-07  1207   0.125E-03    0.654E-03
RMM:  51    -0.494071277327E+03   -0.18461E-05   -0.21890E-07  1166   0.106E-03    0.381E-03
RMM:  52    -0.494071280413E+03   -0.30860E-05   -0.16156E-07  1166   0.773E-04    0.471E-03
RMM:  53    -0.494071283319E+03   -0.29061E-05   -0.10462E-07  1104   0.754E-04    0.240E-03
RMM:  54    -0.494071288254E+03   -0.49346E-05   -0.58380E-08   923   0.437E-04    0.248E-03
RMM:  55    -0.494071291030E+03   -0.27768E-05   -0.39769E-08   889   0.424E-04    0.144E-03
RMM:  56    -0.494071294196E+03   -0.31659E-05   -0.32915E-08   717   0.323E-04    0.137E-03
RMM:  57    -0.494071290892E+03    0.33039E-05   -0.31838E-08   890   0.414E-04    0.316E-03
RMM:  58    -0.494071296318E+03   -0.54258E-05   -0.30943E-08   842   0.371E-04    0.896E-04
RMM:  59    -0.494071298897E+03   -0.25789E-05   -0.71888E-09   362   0.235E-04    0.106E-03
RMM:  60    -0.494071299486E+03   -0.58845E-06   -0.62237E-09   349   0.224E-04
   2 F= -.52965602E+03 E0= -.52966273E+03  d E =-.614580E+01  mag=    85.9119
       N       E                     dE             d eps       ncg     rms          rms(c)
DAV:   1    -0.493775609036E+03    0.29569E+00   -0.39571E+02  2112   0.222E+01    0.514E+00
RMM:   2    -0.496305477719E+03   -0.25299E+01   -0.82557E+00  2100   0.652E+00    0.226E+01
RMM:   3    -0.495222349547E+03    0.10831E+01   -0.18748E+00  2395   0.235E+00    0.130E+01
RMM:   4    -0.495218493605E+03    0.38559E-02   -0.73302E-01  2101   0.168E+00    0.133E+01
RMM:   5    -0.494743287988E+03    0.47521E+00   -0.33137E-01  2100   0.121E+00    0.564E+00
RMM:   6    -0.494704474509E+03    0.38813E-01   -0.11499E-01  2101   0.690E-01    0.451E+00
RMM:   7    -0.494702953179E+03    0.15213E-02   -0.73896E-02  2100   0.544E-01    0.418E+00
RMM:   8    -0.494678796973E+03    0.24156E-01   -0.55017E-02  2102   0.476E-01    0.324E+00
RMM:   9    -0.494687947901E+03   -0.91509E-02   -0.59537E-02  2101   0.492E-01    0.366E+00
RMM:  10    -0.494682416397E+03    0.55315E-02   -0.75507E-02  2103   0.536E-01    0.353E+00
RMM:  11    -0.494661946994E+03    0.20469E-01   -0.52532E-02  2109   0.460E-01    0.244E+00
RMM:  12    -0.494659072572E+03    0.28744E-02   -0.33323E-02  2101   0.360E-01    0.218E+00
RMM:  13    -0.494650288742E+03    0.87838E-02   -0.16790E-02  2101   0.263E-01    0.118E+00
RMM:  14    -0.494649711108E+03    0.57763E-03   -0.87754E-03  2100   0.191E-01    0.121E+00
RMM:  15    -0.494645608822E+03    0.41023E-02   -0.42256E-03  2100   0.136E-01    0.564E-01
RMM:  16    -0.494644664811E+03    0.94401E-03   -0.17450E-03  2100   0.857E-02    0.476E-01
RMM:  17    -0.494644250724E+03    0.41409E-03   -0.10120E-03  2100   0.635E-02    0.370E-01
RMM:  18    -0.494643919319E+03    0.33140E-03   -0.77987E-04  2101   0.559E-02    0.340E-01
RMM:  19    -0.494643608736E+03    0.31058E-03   -0.56375E-04  2102   0.462E-02    0.237E-01
RMM:  20    -0.494643536860E+03    0.71876E-04   -0.31898E-04  2101   0.353E-02    0.211E-01
RMM:  21    -0.494643464067E+03    0.72793E-04   -0.16724E-04  2103   0.249E-02    0.129E-01
RMM:  22    -0.494643465981E+03   -0.19132E-05   -0.85708E-05  2099   0.189E-02    0.104E-01
RMM:  23    -0.494643510314E+03   -0.44334E-04   -0.54141E-05  2097   0.145E-02    0.101E-01
RMM:  24    -0.494643529863E+03   -0.19549E-04   -0.31761E-05  2096   0.113E-02    0.560E-02
RMM:  25    -0.494643596741E+03   -0.66878E-04   -0.18961E-05  2088   0.880E-03    0.571E-02
RMM:  26    -0.494643674251E+03   -0.77510E-04   -0.10249E-05  1958   0.652E-03    0.303E-02
RMM:  27    -0.494643727069E+03   -0.52818E-04   -0.45035E-06  1722   0.454E-03    0.212E-02
RMM:  28    -0.494643817701E+03   -0.90632E-04   -0.26344E-06  1487   0.330E-03    0.227E-02
RMM:  29    -0.494643885495E+03   -0.67794E-04   -0.18096E-06  1281   0.307E-03    0.113E-02
RMM:  30    -0.494643973158E+03   -0.87663E-04   -0.10496E-06  1221   0.208E-03    0.135E-02
RMM:  31    -0.494644059750E+03   -0.86593E-04   -0.80151E-07  1207   0.190E-03    0.672E-03
RMM:  32    -0.494644124516E+03   -0.64766E-04   -0.43354E-07  1197   0.122E-03    0.685E-03
RMM:  33    -0.494644238733E+03   -0.11422E-03   -0.54813E-07  1222   0.117E-03    0.507E-03
RMM:  34    -0.494644300056E+03   -0.61324E-04   -0.30460E-07  1183   0.941E-04    0.481E-03
RMM:  35    -0.494644441048E+03   -0.14099E-03   -0.68402E-07  1221   0.937E-04    0.467E-03
RMM:  36    -0.494644517534E+03   -0.76486E-04   -0.35887E-07  1151   0.898E-04    0.334E-03
RMM:  37    -0.494644639694E+03   -0.12216E-03   -0.67924E-07  1198   0.847E-04    0.436E-03
RMM:  38    -0.494644721552E+03   -0.81858E-04   -0.45294E-07  1150   0.834E-04    0.244E-03
RMM:  39    -0.494644807985E+03   -0.86433E-04   -0.52749E-07  1127   0.737E-04    0.356E-03
RMM:  40    -0.494644887998E+03   -0.80014E-04   -0.58921E-07  1133   0.783E-04    0.192E-03
RMM:  41    -0.494644939579E+03   -0.51581E-04   -0.39678E-07  1075   0.659E-04    0.268E-03
RMM:  42    -0.494644991612E+03   -0.52033E-04   -0.51366E-07  1086   0.682E-04    0.142E-03
RMM:  43    -0.494645012383E+03   -0.20771E-04   -0.19724E-07   973   0.522E-04    0.163E-03
RMM:  44    -0.494645029959E+03   -0.17575E-04   -0.17654E-07   930   0.467E-04    0.101E-03
RMM:  45    -0.494645035522E+03   -0.55632E-05   -0.52192E-08   771   0.358E-04    0.795E-04
RMM:  46    -0.494645042336E+03   -0.68147E-05   -0.62228E-08   695   0.329E-04    0.679E-04
RMM:  47    -0.494645042654E+03   -0.31794E-06   -0.10806E-08   545   0.288E-04
   3 F= -.53023250E+03 E0= -.53023789E+03  d E =-.672228E+01  mag=    85.8939
       N       E                     dE             d eps       ncg     rms          rms(c)
DAV:   1    -0.494257326482E+03    0.38772E+00   -0.68982E+02  2096   0.320E+01    0.107E+01
RMM:   2    -0.500248358948E+03   -0.59910E+01   -0.18503E+01  2100   0.102E+01    0.337E+01
RMM:   3    -0.497980918382E+03    0.22674E+01   -0.71214E+00  2175   0.548E+00    0.234E+01
RMM:   4    -0.499858798251E+03   -0.18779E+01   -0.22804E+00  2104   0.303E+00    0.321E+01
RMM:   5    -0.496696461377E+03    0.31623E+01   -0.99541E-01  2101   0.204E+00    0.105E+01
RMM:   6    -0.496489215704E+03    0.20725E+00   -0.43466E-01  2100   0.131E+00    0.757E+00
RMM:   7    -0.496471185019E+03    0.18031E-01   -0.25888E-01  2100   0.104E+00    0.740E+00
RMM:   8    -0.496370396515E+03    0.10079E+00   -0.15769E-01  2100   0.831E-01    0.468E+00
RMM:   9    -0.496347982451E+03    0.22414E-01   -0.83628E-02  2100   0.597E-01    0.392E+00
RMM:  10    -0.496372524543E+03   -0.24542E-01   -0.10018E-01  2104   0.626E-01    0.510E+00
RMM:  11    -0.496342944374E+03    0.29580E-01   -0.94396E-02  2100   0.617E-01    0.393E+00
RMM:  12    -0.496337529361E+03    0.54150E-02   -0.71091E-02  2101   0.537E-01    0.365E+00
RMM:  13    -0.496319502758E+03    0.18027E-01   -0.43522E-02  2101   0.423E-01    0.232E+00
RMM:  14    -0.496309129512E+03    0.10373E-01   -0.21892E-02  2100   0.306E-01    0.153E+00
RMM:  15    -0.496305566732E+03    0.35628E-02   -0.10174E-02  2101   0.207E-01    0.107E+00
RMM:  16    -0.496305448868E+03    0.11786E-03   -0.45839E-03  2101   0.136E-01    0.900E-01
RMM:  17    -0.496304044316E+03    0.14046E-02   -0.24872E-03  2100   0.102E-01    0.512E-01
RMM:  18    -0.496304806804E+03   -0.76249E-03   -0.15392E-03  2099   0.803E-02    0.540E-01
RMM:  19    -0.496305049199E+03   -0.24240E-03   -0.11079E-03  2100   0.663E-02    0.429E-01
RMM:  20    -0.496305106442E+03   -0.57243E-04   -0.63513E-04  2101   0.508E-02    0.258E-01
RMM:  21    -0.496305574724E+03   -0.46828E-03   -0.39473E-04  2099   0.390E-02    0.245E-01
RMM:  22    -0.496305730952E+03   -0.15623E-03   -0.25583E-04  2101   0.328E-02    0.125E-01
RMM:  23    -0.496306102576E+03   -0.37162E-03   -0.14186E-04  2102   0.238E-02    0.149E-01
RMM:  24    -0.496306354057E+03   -0.25148E-03   -0.83931E-05  2100   0.184E-02    0.101E-01
RMM:  25    -0.496306550050E+03   -0.19599E-03   -0.50293E-05  2096   0.144E-02    0.877E-02
RMM:  26    -0.496306811188E+03   -0.26114E-03   -0.26892E-05  2096   0.101E-02    0.591E-02
RMM:  27    -0.496306933647E+03   -0.12246E-03   -0.13654E-05  1985   0.750E-03    0.380E-02
RMM:  28    -0.496307135822E+03   -0.20217E-03   -0.95343E-06  1906   0.609E-03    0.425E-02
RMM:  29    -0.496307282927E+03   -0.14711E-03   -0.59280E-06  1772   0.517E-03    0.201E-02
RMM:  30    -0.496307401495E+03   -0.11857E-03   -0.30496E-06  1578   0.360E-03    0.242E-02
RMM:  31    -0.496307549069E+03   -0.14757E-03   -0.27525E-06  1484   0.341E-03    0.174E-02
RMM:  32    -0.496307658308E+03   -0.10924E-03   -0.19063E-06  1340   0.294E-03    0.160E-02
RMM:  33    -0.496307778191E+03   -0.11988E-03   -0.15427E-06  1297   0.249E-03    0.134E-02
RMM:  34    -0.496307856369E+03   -0.78178E-04   -0.10763E-06  1223   0.219E-03    0.114E-02
RMM:  35    -0.496307991444E+03   -0.13507E-03   -0.12827E-06  1334   0.188E-03    0.106E-02
RMM:  36    -0.496308050620E+03   -0.59177E-04   -0.74711E-07  1213   0.179E-03    0.765E-03
RMM:  37    -0.496308134812E+03   -0.84191E-04   -0.86865E-07  1294   0.150E-03    0.882E-03
RMM:  38    -0.496308187926E+03   -0.53114E-04   -0.64420E-07  1229   0.155E-03    0.524E-03
RMM:  39    -0.496308230644E+03   -0.42719E-04   -0.55531E-07  1240   0.119E-03    0.734E-03
RMM:  40    -0.496308262141E+03   -0.31496E-04   -0.47458E-07  1226   0.125E-03    0.414E-03
RMM:  41    -0.496308283729E+03   -0.21588E-04   -0.39318E-07  1217   0.103E-03    0.597E-03
RMM:  42    -0.496308301698E+03   -0.17969E-04   -0.43010E-07  1260   0.107E-03    0.305E-03
RMM:  43    -0.496308304959E+03   -0.32615E-05   -0.21602E-07  1167   0.780E-04    0.349E-03
RMM:  44    -0.496308304399E+03    0.56033E-06   -0.18916E-07  1168   0.696E-04
   4 F= -.53190680E+03 E0= -.53191590E+03  d E =-.167429E+01  mag=    85.8136
       N       E                     dE             d eps       ncg     rms          rms(c)
DAV:   1    -0.496203068057E+03    0.10524E+00   -0.75279E+01  2128   0.104E+01    0.330E+00
RMM:   2    -0.496811383121E+03   -0.60832E+00   -0.15026E+00  2100   0.286E+00    0.114E+01
RMM:   3    -0.496569773175E+03    0.24161E+00   -0.61033E-01  2199   0.159E+00    0.779E+00
RMM:   4    -0.496861966732E+03   -0.29219E+00   -0.23859E-01  2102   0.954E-01    0.116E+01
RMM:   5    -0.496442263418E+03    0.41970E+00   -0.12420E-01  2100   0.735E-01    0.342E+00
RMM:   6    -0.496409808354E+03    0.32455E-01   -0.37082E-02  2101   0.397E-01    0.156E+00
RMM:   7    -0.496411425082E+03   -0.16167E-02   -0.15968E-02  2100   0.258E-01    0.179E+00
RMM:   8    -0.496407000552E+03    0.44245E-02   -0.10316E-02  2103   0.208E-01    0.149E+00
RMM:   9    -0.496403422403E+03    0.35781E-02   -0.69549E-03  2101   0.170E-01    0.103E+00
RMM:  10    -0.496409280053E+03   -0.58577E-02   -0.10539E-02  2101   0.202E-01    0.176E+00
RMM:  11    -0.496403445079E+03    0.58350E-02   -0.91034E-03  2103   0.191E-01    0.108E+00
RMM:  12    -0.496401202546E+03    0.22425E-02   -0.46449E-03  2100   0.138E-01    0.674E-01
RMM:  13    -0.496401395226E+03   -0.19268E-03   -0.24290E-03  2101   0.958E-02    0.615E-01
RMM:  14    -0.496400720637E+03    0.67459E-03   -0.12963E-03  2100   0.742E-02    0.386E-01
RMM:  15    -0.496400411911E+03    0.30873E-03   -0.55633E-04  2100   0.479E-02    0.255E-01
RMM:  16    -0.496400326727E+03    0.85183E-04   -0.24163E-04  2100   0.316E-02    0.154E-01
RMM:  17    -0.496400349501E+03   -0.22774E-04   -0.14247E-04  2100   0.240E-02    0.145E-01
RMM:  18    -0.496400382129E+03   -0.32628E-04   -0.11011E-04  2098   0.209E-02    0.126E-01
RMM:  19    -0.496400413419E+03   -0.31290E-04   -0.77628E-05  2101   0.177E-02    0.104E-01
RMM:  20    -0.496400418105E+03   -0.46859E-05   -0.44812E-05  2097   0.133E-02    0.506E-02
RMM:  21    -0.496400440993E+03   -0.22888E-04   -0.21807E-05  2096   0.932E-03    0.549E-02
RMM:  22    -0.496400457403E+03   -0.16410E-04   -0.13479E-05  2085   0.748E-03    0.343E-02
RMM:  23    -0.496400468473E+03   -0.11070E-04   -0.67443E-06  1826   0.538E-03    0.292E-02
RMM:  24    -0.496400483004E+03   -0.14531E-04   -0.40838E-06  1702   0.436E-03    0.226E-02
RMM:  25    -0.496400491934E+03   -0.89298E-05   -0.21413E-06  1372   0.338E-03    0.136E-02
RMM:  26    -0.496400501991E+03   -0.10057E-04   -0.11095E-06  1194   0.237E-03    0.163E-02
RMM:  27    -0.496400507530E+03   -0.55387E-05   -0.61623E-07  1165   0.186E-03    0.790E-03
RMM:  28    -0.496400512245E+03   -0.47152E-05   -0.27399E-07  1161   0.118E-03    0.595E-03
RMM:  29    -0.496400521240E+03   -0.89948E-05   -0.18026E-07  1167   0.988E-04    0.463E-03
RMM:  30    -0.496400525789E+03   -0.45493E-05   -0.11985E-07  1153   0.800E-04    0.416E-03
RMM:  31    -0.496400534604E+03   -0.88145E-05   -0.98666E-08  1160   0.648E-04    0.360E-03
RMM:  32    -0.496400539582E+03   -0.49782E-05   -0.84643E-08  1115   0.666E-04    0.334E-03
RMM:  33    -0.496400548546E+03   -0.89639E-05   -0.94608E-08  1159   0.595E-04    0.406E-03
RMM:  34    -0.496400553999E+03   -0.54533E-05   -0.83012E-08  1137   0.635E-04    0.280E-03
RMM:  35    -0.496400561466E+03   -0.74664E-05   -0.94462E-08  1104   0.563E-04    0.359E-03
RMM:  36    -0.496400566669E+03   -0.52036E-05   -0.86127E-08  1113   0.594E-04    0.177E-03
RMM:  37    -0.496400568796E+03   -0.21264E-05   -0.42152E-08   972   0.413E-04    0.210E-03
RMM:  38    -0.496400570602E+03   -0.18066E-05   -0.35521E-08   885   0.386E-04    0.121E-03
RMM:  39    -0.496400571267E+03   -0.66488E-06   -0.24000E-08   836   0.335E-04
   5 F= -.53201128E+03 E0= -.53202129E+03  d E =-.177877E+01  mag=    85.8255
       N       E                     dE             d eps       ncg     rms          rms(c)
DAV:   1    -0.496123359254E+03    0.27721E+00   -0.18485E+02  2096   0.170E+01    0.647E+00
RMM:   2    -0.497517247748E+03   -0.13939E+01   -0.38893E+00  2100   0.478E+00    0.157E+01
RMM:   3    -0.497623539768E+03   -0.10629E+00   -0.20896E+00  2115   0.298E+00    0.165E+01
RMM:   4    -0.497261250018E+03    0.36229E+00   -0.79263E-01  2100   0.187E+00    0.122E+01
RMM:   5    -0.496880006346E+03    0.38124E+00   -0.25371E-01  2101   0.105E+00    0.511E+00
RMM:   6    -0.496847575268E+03    0.32431E-01   -0.72541E-02  2100   0.538E-01    0.406E+00
RMM:   7    -0.496829870561E+03    0.17705E-01   -0.51956E-02  2100   0.463E-01    0.320E+00
RMM:   8    -0.496803084305E+03    0.26786E-01   -0.30157E-02  2100   0.368E-01    0.211E+00
RMM:   9    -0.496797081139E+03    0.60032E-02   -0.16926E-02  2100   0.269E-01    0.172E+00
RMM:  10    -0.496804577210E+03   -0.74961E-02   -0.20175E-02  2102   0.274E-01    0.246E+00
RMM:  11    -0.496793770253E+03    0.10807E-01   -0.18228E-02  2102   0.271E-01    0.150E+00
RMM:  12    -0.496791816019E+03    0.19542E-02   -0.12298E-02  2101   0.220E-01    0.136E+00
RMM:  13    -0.496788744392E+03    0.30716E-02   -0.65164E-03  2100   0.163E-01    0.765E-01
RMM:  14    -0.496788821959E+03   -0.77567E-04   -0.35114E-03  2100   0.121E-01    0.818E-01
RMM:  15    -0.496787578009E+03    0.12439E-02   -0.16100E-03  2100   0.840E-02    0.385E-01
RMM:  16    -0.496787513920E+03    0.64089E-04   -0.68559E-04  2100   0.542E-02    0.283E-01
RMM:  17    -0.496787564721E+03   -0.50800E-04   -0.32219E-04  2100   0.358E-02    0.214E-01
RMM:  18    -0.496787646903E+03   -0.82183E-04   -0.19457E-04  2100   0.287E-02    0.164E-01
RMM:  19    -0.496787817781E+03   -0.17088E-03   -0.12936E-04  2096   0.224E-02    0.143E-01
RMM:  20    -0.496787894190E+03   -0.76409E-04   -0.80610E-05  2103   0.183E-02    0.820E-02
RMM:  21    -0.496788007940E+03   -0.11375E-03   -0.48615E-05  2096   0.139E-02    0.838E-02
RMM:  22    -0.496788101174E+03   -0.93234E-04   -0.28945E-05  2096   0.107E-02    0.480E-02
RMM:  23    -0.496788151121E+03   -0.49948E-04   -0.13500E-05  2035   0.748E-03    0.416E-02
RMM:  24    -0.496788219879E+03   -0.68757E-04   -0.84011E-06  1922   0.579E-03    0.342E-02
RMM:  25    -0.496788256922E+03   -0.37043E-04   -0.46422E-06  1710   0.464E-03    0.254E-02
RMM:  26    -0.496788311701E+03   -0.54779E-04   -0.33273E-06  1630   0.380E-03    0.289E-02
RMM:  27    -0.496788344711E+03   -0.33010E-04   -0.17925E-06  1287   0.308E-03    0.110E-02
RMM:  28    -0.496788375085E+03   -0.30375E-04   -0.98627E-07  1216   0.215E-03    0.126E-02
RMM:  29    -0.496788421885E+03   -0.46800E-04   -0.79369E-07  1230   0.190E-03    0.951E-03
RMM:  30    -0.496788449477E+03   -0.27591E-04   -0.48829E-07  1205   0.148E-03    0.898E-03
RMM:  31    -0.496788499620E+03   -0.50143E-04   -0.57014E-07  1240   0.133E-03    0.805E-03
RMM:  32    -0.496788531079E+03   -0.31459E-04   -0.42176E-07  1209   0.131E-03    0.625E-03
RMM:  33    -0.496788580972E+03   -0.49893E-04   -0.57007E-07  1256   0.115E-03    0.770E-03
RMM:  34    -0.496788614336E+03   -0.33364E-04   -0.43114E-07  1227   0.121E-03    0.539E-03
RMM:  35    -0.496788659956E+03   -0.45620E-04   -0.62583E-07  1270   0.106E-03    0.676E-03
RMM:  36    -0.496788691205E+03   -0.31249E-04   -0.50082E-07  1243   0.113E-03    0.432E-03
RMM:  37    -0.496788713572E+03   -0.22367E-04   -0.39572E-07  1212   0.902E-04    0.474E-03
RMM:  38    -0.496788732183E+03   -0.18611E-04   -0.38376E-07  1230   0.899E-04    0.268E-03
RMM:  39    -0.496788740450E+03   -0.82673E-05   -0.21386E-07  1115   0.703E-04    0.338E-03
RMM:  40    -0.496788747737E+03   -0.72865E-05   -0.28173E-07  1192   0.702E-04    0.194E-03
RMM:  41    -0.496788749331E+03   -0.15942E-05   -0.12700E-07  1055   0.565E-04    0.226E-03
RMM:  42    -0.496788750116E+03   -0.78462E-06   -0.10536E-07   994   0.481E-04
   6 F= -.53242391E+03 E0= -.53243444E+03  d E =-.412634E+00  mag=    85.8230
       N       E                     dE             d eps       ncg     rms          rms(c)
DAV:   1    -0.496747718582E+03    0.41031E-01   -0.16726E+01  2112   0.507E+00    0.189E+00
RMM:   2    -0.496882676315E+03   -0.13496E+00   -0.29148E-01  2100   0.129E+00    0.500E+00
RMM:   3    -0.496876851701E+03    0.58246E-02   -0.16808E-01  2124   0.849E-01    0.503E+00
RMM:   4    -0.496911629540E+03   -0.34778E-01   -0.70586E-02  2100   0.543E-01    0.562E+00
RMM:   5    -0.496819139084E+03    0.92490E-01   -0.32879E-02  2100   0.381E-01    0.216E+00
RMM:   6    -0.496805150595E+03    0.13988E-01   -0.98521E-03  2100   0.206E-01    0.716E-01
RMM:   7    -0.496804827136E+03    0.32346E-03   -0.32777E-03  2100   0.118E-01    0.664E-01
RMM:   8    -0.496804873490E+03   -0.46355E-04   -0.21455E-03  2103   0.931E-02    0.805E-01
RMM:   9    -0.496803387514E+03    0.14860E-02   -0.16429E-03  2100   0.834E-02    0.402E-01
RMM:  10    -0.496804778435E+03   -0.13909E-02   -0.19213E-03  2104   0.858E-02    0.832E-01
RMM:  11    -0.496803607737E+03    0.11707E-02   -0.17581E-03  2100   0.833E-02    0.500E-01
RMM:  12    -0.496802967625E+03    0.64011E-03   -0.81456E-04  2100   0.583E-02    0.206E-01
RMM:  13    -0.496803009707E+03   -0.42081E-04   -0.28561E-04  2102   0.331E-02    0.219E-01
RMM:  14    -0.496802940526E+03    0.69181E-04   -0.15302E-04  2100   0.254E-02    0.130E-01
RMM:  15    -0.496802928085E+03    0.12441E-04   -0.60228E-05  2096   0.160E-02    0.798E-02
RMM:  16    -0.496802931248E+03   -0.31631E-05   -0.26136E-05  2096   0.103E-02    0.504E-02
RMM:  17    -0.496802950647E+03   -0.19399E-04   -0.15252E-05  2096   0.773E-03    0.520E-02
RMM:  18    -0.496802965480E+03   -0.14833E-04   -0.11256E-05  2088   0.651E-03    0.351E-02
RMM:  19    -0.496802984807E+03   -0.19327E-04   -0.88364E-06  1944   0.592E-03    0.364E-02
RMM:  20    -0.496802998251E+03   -0.13444E-04   -0.58741E-06  1791   0.503E-03    0.216E-02
RMM:  21    -0.496803004756E+03   -0.65053E-05   -0.25790E-06  1471   0.358E-03    0.158E-02
RMM:  22    -0.496803012421E+03   -0.76651E-05   -0.14667E-06  1218   0.277E-03    0.165E-02
RMM:  23    -0.496803016924E+03   -0.45022E-05   -0.85491E-07  1171   0.222E-03    0.959E-03
RMM:  24    -0.496803021595E+03   -0.46712E-05   -0.46426E-07  1167   0.153E-03    0.927E-03
RMM:  25    -0.496803027173E+03   -0.55786E-05   -0.32331E-07  1173   0.132E-03    0.626E-03
RMM:  26    -0.496803031170E+03   -0.39969E-05   -0.17298E-07  1162   0.946E-04    0.423E-03
RMM:  27    -0.496803036782E+03   -0.56116E-05   -0.99608E-08  1138   0.691E-04    0.354E-03
RMM:  28    -0.496803039691E+03   -0.29089E-05   -0.55390E-08  1024   0.535E-04    0.270E-03
RMM:  29    -0.496803046674E+03   -0.69834E-05   -0.63671E-08  1021   0.466E-04    0.324E-03
RMM:  30    -0.496803051535E+03   -0.48612E-05   -0.56168E-08  1005   0.495E-04    0.235E-03
RMM:  31    -0.496803059119E+03   -0.75836E-05   -0.76664E-08  1105   0.440E-04    0.288E-03
RMM:  32    -0.496803065746E+03   -0.66268E-05   -0.69618E-08  1029   0.469E-04    0.212E-03
RMM:  33    -0.496803072074E+03   -0.63282E-05   -0.68033E-08   999   0.411E-04    0.231E-03
RMM:  34    -0.496803079443E+03   -0.73692E-05   -0.91001E-08  1004   0.427E-04    0.149E-03
RMM:  35    -0.496803084831E+03   -0.53877E-05   -0.81810E-08  1001   0.407E-04    0.196E-03
RMM:  36    -0.496803089958E+03   -0.51275E-05   -0.99988E-08   992   0.429E-04    0.119E-03
RMM:  37    -0.496803092265E+03   -0.23070E-05   -0.55754E-08   860   0.361E-04    0.134E-03
RMM:  38    -0.496803094198E+03   -0.19328E-05   -0.66582E-08   794   0.342E-04    0.692E-04
RMM:  39    -0.496803094635E+03   -0.43726E-06   -0.31187E-08   687   0.318E-04
   7 F= -.53244753E+03 E0= -.53245822E+03  d E =-.436253E+00  mag=    85.8242
       N       E                     dE             d eps       ncg     rms          rms(c)
DAV:   1    -0.496785869382E+03    0.17225E-01   -0.41006E+01  2096   0.777E+00    0.238E+00
RMM:   2    -0.496966299417E+03   -0.18043E+00   -0.67985E-01  2100   0.198E+00    0.469E+00
RMM:   3    -0.497075096487E+03   -0.10880E+00   -0.27557E-01  2216   0.104E+00    0.691E+00
RMM:   4    -0.497094830032E+03   -0.19734E-01   -0.11651E-01  2101   0.675E-01    0.770E+00
RMM:   5    -0.496912680827E+03    0.18215E+00   -0.55020E-02  2100   0.490E-01    0.209E+00
RMM:   6    -0.496904181202E+03    0.84996E-02   -0.15505E-02  2101   0.252E-01    0.117E+00
RMM:   7    -0.496903774578E+03    0.40662E-03   -0.71510E-03  2100   0.169E-01    0.115E+00
RMM:   8    -0.496900252269E+03    0.35223E-02   -0.45796E-03  2100   0.138E-01    0.699E-01
RMM:   9    -0.496900173013E+03    0.79256E-04   -0.40382E-03  2101   0.129E-01    0.823E-01
RMM:  10    -0.496901209940E+03   -0.10369E-02   -0.55340E-03  2101   0.142E-01    0.110E+00
RMM:  11    -0.496898593046E+03    0.26169E-02   -0.42360E-03  2103   0.129E-01    0.663E-01
RMM:  12    -0.496897996643E+03    0.59640E-03   -0.22077E-03  2100   0.917E-02    0.583E-01
RMM:  13    -0.496897530851E+03    0.46579E-03   -0.98641E-04  2102   0.624E-02    0.342E-01
RMM:  14    -0.496897451575E+03    0.79275E-04   -0.43146E-04  2100   0.418E-02    0.245E-01
RMM:  15    -0.496897432020E+03    0.19555E-04   -0.18132E-04  2100   0.280E-02    0.124E-01
RMM:  16    -0.496897539445E+03   -0.10742E-03   -0.96723E-05  2098   0.200E-02    0.116E-01
RMM:  17    -0.496897640346E+03   -0.10090E-03   -0.56988E-05  2098   0.146E-02    0.673E-02
RMM:  18    -0.496897735404E+03   -0.95058E-04   -0.31205E-05  2096   0.111E-02    0.588E-02
RMM:  19    -0.496897903510E+03   -0.16811E-03   -0.28201E-05  2096   0.100E-02    0.859E-02
RMM:  20    -0.496898001618E+03   -0.98108E-04   -0.17792E-05  2095   0.822E-03    0.354E-02
RMM:  21    -0.496898087735E+03   -0.86117E-04   -0.93322E-06  1943   0.602E-03    0.397E-02
RMM:  22    -0.496898180578E+03   -0.92844E-04   -0.52206E-06  1750   0.474E-03    0.195E-02
RMM:  23    -0.496898253349E+03   -0.72770E-04   -0.26346E-06  1504   0.349E-03    0.236E-02
RMM:  24    -0.496898339613E+03   -0.86265E-04   -0.18476E-06  1326   0.297E-03    0.166E-02
RMM:  25    -0.496898399145E+03   -0.59531E-04   -0.10929E-06  1223   0.230E-03    0.151E-02
RMM:  26    -0.496898489659E+03   -0.90514E-04   -0.10899E-06  1277   0.198E-03    0.170E-02
RMM:  27    -0.496898571959E+03   -0.82301E-04   -0.92810E-07  1244   0.193E-03    0.119E-02
RMM:  28    -0.496898666490E+03   -0.94531E-04   -0.10168E-06  1298   0.173E-03    0.139E-02
RMM:  29    -0.496898827892E+03   -0.16140E-03   -0.20235E-06  1394   0.211E-03    0.128E-02
RMM:  30    -0.496898958763E+03   -0.13087E-03   -0.19006E-06  1376   0.211E-03    0.122E-02
RMM:  31    -0.496899116849E+03   -0.15809E-03   -0.29099E-06  1462   0.214E-03    0.968E-03
RMM:  32    -0.496899188776E+03   -0.71928E-04   -0.13124E-06  1324   0.176E-03    0.830E-03
RMM:  33    -0.496899289519E+03   -0.10074E-03   -0.27168E-06  1441   0.186E-03    0.779E-03
RMM:  34    -0.496899320652E+03   -0.31133E-04   -0.10405E-06  1304   0.155E-03    0.470E-03
RMM:  35    -0.496899341222E+03   -0.20571E-04   -0.12862E-06  1361   0.126E-03    0.510E-03
RMM:  36    -0.496899341011E+03    0.21121E-06   -0.45384E-07  1225   0.114E-03
   8 F= -.53255164E+03 E0= -.53256283E+03  d E =-.104106E+00  mag=    85.7890
       N       E                     dE             d eps       ncg     rms          rms(c)
DAV:   1    -0.496861501882E+03    0.37839E-01   -0.18882E+01  2096   0.527E+00    0.160E+00
RMM:   2    -0.496942266534E+03   -0.80765E-01   -0.30155E-01  2100   0.131E+00    0.310E+00
RMM:   3    -0.496997792378E+03   -0.55526E-01   -0.12404E-01  2215   0.702E-01    0.480E+00
RMM:   4    -0.497004729873E+03   -0.69375E-02   -0.53884E-02  2101   0.459E-01    0.530E+00
RMM:   5    -0.496918844762E+03    0.85885E-01   -0.26570E-02  2100   0.342E-01    0.138E+00
RMM:   6    -0.496915120813E+03    0.37239E-02   -0.65281E-03  2101   0.165E-01    0.711E-01
RMM:   7    -0.496915096003E+03    0.24810E-04   -0.29235E-03  2100   0.108E-01    0.738E-01
RMM:   8    -0.496913591805E+03    0.15042E-02   -0.20234E-03  2100   0.908E-02    0.475E-01
RMM:   9    -0.496913545171E+03    0.46634E-04   -0.18705E-03  2101   0.877E-02    0.556E-01
RMM:  10    -0.496914240662E+03   -0.69549E-03   -0.26220E-03  2101   0.970E-02    0.809E-01
RMM:  11    -0.496912702972E+03    0.15377E-02   -0.19086E-03  2105   0.865E-02    0.414E-01
RMM:  12    -0.496912510451E+03    0.19252E-03   -0.87648E-04  2100   0.580E-02    0.375E-01
RMM:  13    -0.496912304498E+03    0.20595E-03   -0.38337E-04  2100   0.386E-02    0.205E-01
RMM:  14    -0.496912264382E+03    0.40116E-04   -0.15085E-04  2099   0.249E-02    0.129E-01
RMM:  15    -0.496912285620E+03   -0.21237E-04   -0.62887E-05  2098   0.162E-02    0.781E-02
RMM:  16    -0.496912337590E+03   -0.51971E-04   -0.37386E-05  2097   0.123E-02    0.690E-02
RMM:  17    -0.496912388746E+03   -0.51156E-04   -0.23531E-05  2096   0.925E-03    0.458E-02
RMM:  18    -0.496912434657E+03   -0.45910E-04   -0.13655E-05  2095   0.717E-03    0.399E-02
RMM:  19    -0.496912506044E+03   -0.71387E-04   -0.12203E-05  2081   0.657E-03    0.545E-02
RMM:  20    -0.496912561930E+03   -0.55886E-04   -0.76763E-06  1905   0.541E-03    0.227E-02
RMM:  21    -0.496912597721E+03   -0.35791E-04   -0.36430E-06  1635   0.403E-03    0.232E-02
RMM:  22    -0.496912644021E+03   -0.46300E-04   -0.20265E-06  1299   0.320E-03    0.133E-02
RMM:  23    -0.496912674613E+03   -0.30592E-04   -0.10880E-06  1202   0.238E-03    0.147E-02
RMM:  24    -0.496912717280E+03   -0.42667E-04   -0.78477E-07  1215   0.189E-03    0.128E-02
RMM:  25    -0.496912747569E+03   -0.30289E-04   -0.51371E-07  1193   0.158E-03    0.935E-03
RMM:  26    -0.496912785723E+03   -0.38154E-04   -0.42456E-07  1203   0.125E-03    0.101E-02
RMM:  27    -0.496912845783E+03   -0.60059E-04   -0.54258E-07  1242   0.132E-03    0.750E-03
RMM:  28    -0.496912890597E+03   -0.44815E-04   -0.45572E-07  1219   0.119E-03    0.830E-03
RMM:  29    -0.496912987012E+03   -0.96414E-04   -0.12013E-06  1332   0.145E-03    0.863E-03
RMM:  30    -0.496913051919E+03   -0.64908E-04   -0.93795E-07  1290   0.150E-03    0.712E-03
RMM:  31    -0.496913132093E+03   -0.80173E-04   -0.14916E-06  1372   0.142E-03    0.605E-03
RMM:  32    -0.496913166720E+03   -0.34628E-04   -0.68019E-07  1262   0.126E-03    0.483E-03
RMM:  33    -0.496913205819E+03   -0.39099E-04   -0.10300E-06  1335   0.116E-03    0.453E-03
RMM:  34    -0.496913217704E+03   -0.11885E-04   -0.43101E-07  1204   0.996E-04    0.311E-03
RMM:  35    -0.496913223766E+03   -0.60625E-05   -0.49433E-07  1236   0.803E-04    0.308E-03
RMM:  36    -0.496913223245E+03    0.52134E-06   -0.16774E-07  1113   0.714E-04
   9 F= -.53257190E+03 E0= -.53258337E+03  d E =-.124374E+00  mag=    85.7714
       N       E                     dE             d eps       ncg     rms          rms(c)
DAV:   1    -0.496855070386E+03    0.58153E-01   -0.31246E+01  2096   0.673E+00    0.213E+00
RMM:   2    -0.497056223725E+03   -0.20115E+00   -0.52992E-01  2100   0.171E+00    0.607E+00
RMM:   3    -0.497122721728E+03   -0.66498E-01   -0.19745E-01  2229   0.862E-01    0.734E+00
RMM:   4    -0.497086254791E+03    0.36467E-01   -0.11032E-01  2100   0.657E-01    0.678E+00
RMM:   5    -0.496955088623E+03    0.13117E+00   -0.60364E-02  2100   0.519E-01    0.184E+00
RMM:   6    -0.496948200883E+03    0.68877E-02   -0.13033E-02  2100   0.231E-01    0.103E+00
RMM:   7    -0.496948461592E+03   -0.26071E-03   -0.58656E-03  2100   0.155E-01    0.114E+00
RMM:   8    -0.496944973031E+03    0.34886E-02   -0.34133E-03  2100   0.122E-01    0.625E-01
RMM:   9    -0.496945000106E+03   -0.27075E-04   -0.23252E-03  2101   0.974E-02    0.737E-01
RMM:  10    -0.496945531203E+03   -0.53110E-03   -0.32218E-03  2101   0.109E-01    0.929E-01
RMM:  11    -0.496943264344E+03    0.22669E-02   -0.29413E-03  2100   0.107E-01    0.436E-01
RMM:  12    -0.496943351752E+03   -0.87408E-04   -0.17703E-03  2102   0.832E-02    0.487E-01
RMM:  13    -0.496942965082E+03    0.38667E-03   -0.83324E-04  2102   0.571E-02    0.286E-01
RMM:  14    -0.496942957750E+03    0.73321E-05   -0.34629E-04  2100   0.377E-02    0.196E-01
RMM:  15    -0.496943118282E+03   -0.16053E-03   -0.17823E-04  2100   0.267E-02    0.169E-01
RMM:  16    -0.496943154753E+03   -0.36470E-04   -0.83441E-05  2099   0.190E-02    0.805E-02
RMM:  17    -0.496943273954E+03   -0.11920E-03   -0.37493E-05  2096   0.123E-02    0.754E-02
RMM:  18    -0.496943471575E+03   -0.19762E-03   -0.30016E-05  2096   0.109E-02    0.667E-02
RMM:  19    -0.496943588599E+03   -0.11702E-03   -0.19288E-05  2096   0.885E-03    0.477E-02
RMM:  20    -0.496943727734E+03   -0.13913E-03   -0.12473E-05  2084   0.681E-03    0.419E-02
RMM:  21    -0.496943838461E+03   -0.11073E-03   -0.75685E-06  1879   0.544E-03    0.318E-02
RMM:  22    -0.496943963231E+03   -0.12477E-03   -0.47469E-06  1738   0.452E-03    0.207E-02
RMM:  23    -0.496944073710E+03   -0.11048E-03   -0.32049E-06  1593   0.378E-03    0.241E-02
RMM:  24    -0.496944193146E+03   -0.11944E-03   -0.23667E-06  1421   0.325E-03    0.178E-02
RMM:  25    -0.496944278548E+03   -0.85401E-04   -0.14272E-06  1251   0.258E-03    0.167E-02
RMM:  26    -0.496944381335E+03   -0.10279E-03   -0.11902E-06  1274   0.216E-03    0.152E-02
RMM:  27    -0.496944478177E+03   -0.96842E-04   -0.91503E-07  1234   0.195E-03    0.988E-03
RMM:  28    -0.496944588979E+03   -0.11080E-03   -0.10007E-06  1289   0.177E-03    0.129E-02
RMM:  29    -0.496944775650E+03   -0.18667E-03   -0.18915E-06  1385   0.203E-03    0.109E-02
RMM:  30    -0.496944907798E+03   -0.13215E-03   -0.14866E-06  1336   0.193E-03    0.109E-02
RMM:  31    -0.496945088523E+03   -0.18073E-03   -0.27480E-06  1441   0.199E-03    0.876E-03
RMM:  32    -0.496945182778E+03   -0.94254E-04   -0.16587E-06  1367   0.180E-03    0.878E-03
RMM:  33    -0.496945273533E+03   -0.90755E-04   -0.21360E-06  1413   0.175E-03    0.663E-03
RMM:  34    -0.496945301289E+03   -0.27757E-04   -0.80529E-07  1285   0.136E-03    0.571E-03
RMM:  35    -0.496945315508E+03   -0.14219E-04   -0.12375E-06  1363   0.121E-03    0.429E-03
RMM:  36    -0.496945311600E+03    0.39087E-05   -0.31040E-07  1174   0.943E-04    0.262E-03
RMM:  37    -0.496945306746E+03    0.48540E-05   -0.19261E-07  1099   0.624E-04    0.225E-03
RMM:  38    -0.496945305263E+03    0.14823E-05   -0.76220E-08  1019   0.543E-04    0.167E-03
RMM:  39    -0.496945304931E+03    0.33231E-06   -0.51358E-08   897   0.397E-04
  10 F= -.53262262E+03 E0= -.53263431E+03  d E =-.507168E-01  mag=    85.7511
       N       E                     dE             d eps       ncg     rms          rms(c)
DAV:   1    -0.496920825668E+03    0.24480E-01   -0.74101E+00  2116   0.328E+00    0.103E+00
RMM:   2    -0.496966027517E+03   -0.45202E-01   -0.11913E-01  2100   0.803E-01    0.287E+00
RMM:   3    -0.496984491168E+03   -0.18464E-01   -0.45705E-02  2226   0.414E-01    0.364E+00
RMM:   4    -0.496976330588E+03    0.81606E-02   -0.26436E-02  2100   0.323E-01    0.337E+00
RMM:   5    -0.496944142789E+03    0.32188E-01   -0.14496E-02  2100   0.255E-01    0.847E-01
RMM:   6    -0.496942537084E+03    0.16057E-02   -0.26740E-03  2100   0.105E-01    0.402E-01
RMM:   7    -0.496942651520E+03   -0.11444E-03   -0.11230E-03  2100   0.672E-02    0.500E-01
RMM:   8    -0.496941942142E+03    0.70938E-03   -0.78498E-04  2101   0.567E-02    0.322E-01
RMM:   9    -0.496941844894E+03    0.97249E-04   -0.56545E-04  2101   0.474E-02    0.347E-01
RMM:  10    -0.496941923363E+03   -0.78469E-04   -0.75710E-04  2101   0.524E-02    0.426E-01
RMM:  11    -0.496941425510E+03    0.49785E-03   -0.70376E-04  2099   0.517E-02    0.218E-01
RMM:  12    -0.496941360235E+03    0.65275E-04   -0.36196E-04  2101   0.380E-02    0.198E-01
RMM:  13    -0.496941296757E+03    0.63479E-04   -0.13032E-04  2101   0.228E-02    0.113E-01
RMM:  14    -0.496941294144E+03    0.26127E-05   -0.46329E-05  2096   0.138E-02    0.631E-02
RMM:  15    -0.496941334431E+03   -0.40287E-04   -0.20996E-05  2096   0.914E-03    0.592E-02
RMM:  16    -0.496941364874E+03   -0.30443E-04   -0.13154E-05  2076   0.740E-03    0.387E-02
RMM:  17    -0.496941395800E+03   -0.30926E-04   -0.67520E-06  1843   0.518E-03    0.273E-02
RMM:  18    -0.496941437042E+03   -0.41242E-04   -0.51010E-06  1761   0.464E-03    0.281E-02
RMM:  19    -0.496941489142E+03   -0.52100E-04   -0.42790E-06  1696   0.425E-03    0.246E-02
RMM:  20    -0.496941527009E+03   -0.37867E-04   -0.27984E-06  1454   0.361E-03    0.153E-02
RMM:  21    -0.496941557317E+03   -0.30308E-04   -0.15142E-06  1218   0.268E-03    0.149E-02
RMM:  22    -0.496941595197E+03   -0.37880E-04   -0.10579E-06  1196   0.236E-03    0.883E-03
RMM:  23    -0.496941621048E+03   -0.25851E-04   -0.54862E-07  1185   0.164E-03    0.999E-03
RMM:  24    -0.496941660382E+03   -0.39334E-04   -0.48286E-07  1192   0.143E-03    0.904E-03
RMM:  25    -0.496941684662E+03   -0.24280E-04   -0.28616E-07  1185   0.115E-03    0.631E-03
RMM:  26    -0.496941716697E+03   -0.32034E-04   -0.25446E-07  1186   0.944E-04    0.703E-03
RMM:  27    -0.496941760018E+03   -0.43321E-04   -0.30021E-07  1203   0.962E-04    0.485E-03
RMM:  28    -0.496941798124E+03   -0.38106E-04   -0.29019E-07  1188   0.898E-04    0.625E-03
RMM:  29    -0.496941881271E+03   -0.83147E-04   -0.92277E-07  1312   0.113E-03    0.599E-03
RMM:  30    -0.496941923351E+03   -0.42081E-04   -0.50170E-07  1239   0.108E-03    0.458E-03
RMM:  31    -0.496941981602E+03   -0.58251E-04   -0.10110E-06  1332   0.104E-03    0.429E-03
RMM:  32    -0.496941999934E+03   -0.18333E-04   -0.37499E-07  1200   0.916E-04    0.309E-03
RMM:  33    -0.496942016189E+03   -0.16255E-04   -0.50686E-07  1258   0.786E-04    0.283E-03
RMM:  34    -0.496942017276E+03   -0.10867E-05   -0.20163E-07  1112   0.680E-04    0.178E-03
RMM:  35    -0.496942014635E+03    0.26405E-05   -0.14398E-07   993   0.498E-04    0.185E-03
RMM:  36    -0.496942012885E+03    0.17503E-05   -0.56600E-08   939   0.440E-04    0.103E-03
RMM:  37    -0.496942011783E+03    0.11019E-05   -0.24346E-08   666   0.315E-04    0.104E-03
RMM:  38    -0.496942011529E+03    0.25421E-06   -0.89624E-09   519   0.282E-04
  11 F= -.53262872E+03 E0= -.53264047E+03  d E =-.568146E-01  mag=    85.7432
       N       E                     dE             d eps       ncg     rms          rms(c)
DAV:   1    -0.496861565936E+03    0.80446E-01   -0.27708E+01  2096   0.631E+00    0.202E+00
RMM:   2    -0.497013264243E+03   -0.15170E+00   -0.45684E-01  2101   0.155E+00    0.502E+00
RMM:   3    -0.497110145870E+03   -0.96882E-01   -0.19425E-01  2191   0.867E-01    0.716E+00
RMM:   4    -0.497086950957E+03    0.23195E-01   -0.90041E-02  2102   0.590E-01    0.679E+00
RMM:   5    -0.496951110325E+03    0.13584E+00   -0.49810E-02  2100   0.469E-01    0.170E+00
RMM:   6    -0.496945076136E+03    0.60342E-02   -0.10737E-02  2100   0.210E-01    0.907E-01
RMM:   7    -0.496945400627E+03   -0.32449E-03   -0.47944E-03  2100   0.139E-01    0.106E+00
RMM:   8    -0.496942532311E+03    0.28683E-02   -0.28807E-03  2101   0.111E-01    0.615E-01
RMM:   9    -0.496942228297E+03    0.30401E-03   -0.19630E-03  2101   0.895E-02    0.647E-01
RMM:  10    -0.496942704502E+03   -0.47621E-03   -0.28268E-03  2100   0.103E-01    0.819E-01
RMM:  11    -0.496940657824E+03    0.20467E-02   -0.26778E-03  2099   0.101E-01    0.402E-01
RMM:  12    -0.496940550751E+03    0.10707E-03   -0.14131E-03  2100   0.740E-02    0.399E-01
RMM:  13    -0.496940349175E+03    0.20158E-03   -0.69023E-04  2102   0.513E-02    0.247E-01
RMM:  14    -0.496940343692E+03    0.54830E-05   -0.26189E-04  2100   0.328E-02    0.167E-01
RMM:  15    -0.496940469857E+03   -0.12616E-03   -0.13338E-04  2100   0.233E-02    0.142E-01
RMM:  16    -0.496940550854E+03   -0.80997E-04   -0.66584E-05  2096   0.167E-02    0.849E-02
RMM:  17    -0.496940646828E+03   -0.95974E-04   -0.30573E-05  2097   0.111E-02    0.606E-02
RMM:  18    -0.496940804665E+03   -0.15784E-03   -0.24660E-05  2096   0.978E-03    0.579E-02
RMM:  19    -0.496940970598E+03   -0.16593E-03   -0.18077E-05  2096   0.833E-03    0.500E-02
RMM:  20    -0.496941088430E+03   -0.11783E-03   -0.11404E-05  2053   0.659E-03    0.374E-02
RMM:  21    -0.496941201854E+03   -0.11342E-03   -0.70672E-06  1849   0.528E-03    0.327E-02
RMM:  22    -0.496941333996E+03   -0.13214E-03   -0.46862E-06  1731   0.454E-03    0.200E-02
RMM:  23    -0.496941424206E+03   -0.90210E-04   -0.26587E-06  1503   0.352E-03    0.222E-02
RMM:  24    -0.496941567161E+03   -0.14296E-03   -0.22105E-06  1382   0.309E-03    0.179E-02
RMM:  25    -0.496941647703E+03   -0.80542E-04   -0.13346E-06  1227   0.255E-03    0.151E-02
RMM:  26    -0.496941757802E+03   -0.11010E-03   -0.11516E-06  1275   0.206E-03    0.161E-02
RMM:  27    -0.496941877163E+03   -0.11936E-03   -0.99071E-07  1252   0.199E-03    0.976E-03
RMM:  28    -0.496941989839E+03   -0.11268E-03   -0.97445E-07  1276   0.175E-03    0.123E-02
RMM:  29    -0.496942233340E+03   -0.24350E-03   -0.26236E-06  1427   0.213E-03    0.105E-02
RMM:  30    -0.496942359257E+03   -0.12592E-03   -0.14260E-06  1335   0.191E-03    0.925E-03
RMM:  31    -0.496942561344E+03   -0.20209E-03   -0.34923E-06  1486   0.207E-03    0.104E-02
RMM:  32    -0.496942638838E+03   -0.77494E-04   -0.14434E-06  1358   0.176E-03    0.608E-03
RMM:  33    -0.496942700651E+03   -0.61813E-04   -0.16375E-06  1388   0.140E-03    0.610E-03
RMM:  34    -0.496942714473E+03   -0.13823E-04   -0.53480E-07  1252   0.123E-03    0.362E-03
RMM:  35    -0.496942718494E+03   -0.40211E-05   -0.52451E-07  1228   0.869E-04    0.393E-03
RMM:  36    -0.496942714697E+03    0.37975E-05   -0.21795E-07  1158   0.796E-04    0.189E-03
RMM:  37    -0.496942712118E+03    0.25787E-05   -0.97412E-08   969   0.499E-04    0.241E-03
RMM:  38    -0.496942710923E+03    0.11951E-05   -0.53862E-08   924   0.458E-04    0.136E-03
RMM:  39    -0.496942711486E+03   -0.56300E-06   -0.27078E-08   776   0.341E-04
  12 F= -.53266023E+03 E0= -.53267258E+03  d E =-.315154E-01  mag=    85.7419
       N       E                     dE             d eps       ncg     rms          rms(c)
DAV:   1    -0.496922777866E+03    0.19933E-01   -0.37258E+00  2136   0.231E+00    0.733E-01
RMM:   2    -0.496942072154E+03   -0.19294E-01   -0.59154E-02  2101   0.553E-01    0.178E+00
RMM:   3    -0.496954954452E+03   -0.12882E-01   -0.26172E-02  2188   0.319E-01    0.258E+00
RMM:   4    -0.496953824449E+03    0.11300E-02   -0.11978E-02  2101   0.216E-01    0.254E+00
RMM:   5    -0.496934599539E+03    0.19225E-01   -0.67004E-03  2100   0.173E-01    0.607E-01
RMM:   6    -0.496933816570E+03    0.78297E-03   -0.12982E-03  2100   0.736E-02    0.264E-01
RMM:   7    -0.496933862865E+03   -0.46295E-04   -0.48104E-04  2100   0.441E-02    0.332E-01
RMM:   8    -0.496933559263E+03    0.30360E-03   -0.35789E-04  2102   0.376E-02    0.242E-01
RMM:   9    -0.496933444106E+03    0.11516E-03   -0.27736E-04  2101   0.331E-02    0.220E-01
RMM:  10    -0.496933511302E+03   -0.67196E-04   -0.40247E-04  2099   0.386E-02    0.305E-01
RMM:  11    -0.496933197515E+03    0.31379E-03   -0.36149E-04  2100   0.367E-02    0.151E-01
RMM:  12    -0.496933137211E+03    0.60303E-04   -0.15325E-04  2100   0.247E-02    0.109E-01
RMM:  13    -0.496933127994E+03    0.92170E-05   -0.52216E-05  2098   0.141E-02    0.718E-02
RMM:  14    -0.496933128558E+03   -0.56395E-06   -0.17456E-05  2090   0.848E-03    0.372E-02
RMM:  15    -0.496933148756E+03   -0.20197E-04   -0.79801E-06  1893   0.563E-03    0.368E-02
RMM:  16    -0.496933170458E+03   -0.21702E-04   -0.51822E-06  1740   0.476E-03    0.239E-02
RMM:  17    -0.496933191188E+03   -0.20730E-04   -0.33858E-06  1574   0.381E-03    0.191E-02
RMM:  18    -0.496933218567E+03   -0.27379E-04   -0.26694E-06  1386   0.343E-03    0.167E-02
RMM:  19    -0.496933250482E+03   -0.31916E-04   -0.23460E-06  1331   0.333E-03    0.174E-02
RMM:  20    -0.496933276451E+03   -0.25969E-04   -0.15476E-06  1198   0.281E-03    0.119E-02
RMM:  21    -0.496933295229E+03   -0.18778E-04   -0.83566E-07  1184   0.202E-03    0.946E-03
RMM:  22    -0.496933318780E+03   -0.23550E-04   -0.48978E-07  1184   0.159E-03    0.667E-03
RMM:  23    -0.496933336264E+03   -0.17484E-04   -0.26465E-07  1176   0.114E-03    0.661E-03
RMM:  24    -0.496933364085E+03   -0.27822E-04   -0.21594E-07  1186   0.895E-04    0.589E-03
RMM:  25    -0.496933383465E+03   -0.19379E-04   -0.16263E-07  1171   0.822E-04    0.517E-03
RMM:  26    -0.496933411146E+03   -0.27681E-04   -0.18328E-07  1147   0.730E-04    0.585E-03
RMM:  27    -0.496933455752E+03   -0.44606E-04   -0.31605E-07  1209   0.832E-04    0.431E-03
RMM:  28    -0.496933488609E+03   -0.32857E-04   -0.25423E-07  1166   0.783E-04    0.460E-03
RMM:  29    -0.496933542671E+03   -0.54061E-04   -0.58813E-07  1276   0.895E-04    0.385E-03
RMM:  30    -0.496933572461E+03   -0.29790E-04   -0.35400E-07  1191   0.833E-04    0.320E-03
RMM:  31    -0.496933600576E+03   -0.28115E-04   -0.44211E-07  1228   0.784E-04    0.299E-03
RMM:  32    -0.496933610314E+03   -0.97383E-05   -0.18193E-07  1095   0.647E-04    0.209E-03
RMM:  33    -0.496933616959E+03   -0.66453E-05   -0.25888E-07  1069   0.539E-04    0.174E-03
RMM:  34    -0.496933616464E+03    0.49516E-06   -0.68265E-08   998   0.469E-04
  13 F= -.53266268E+03 E0= -.53267524E+03  d E =-.339627E-01  mag=    85.7425
       N       E                     dE             d eps       ncg     rms          rms(c)
DAV:   1    -0.496880435407E+03    0.53182E-01   -0.16833E+01  2096   0.493E+00    0.152E+00
RMM:   2    -0.496958930318E+03   -0.78495E-01   -0.25966E-01  2101   0.113E+00    0.330E+00
RMM:   3    -0.497032147753E+03   -0.73217E-01   -0.11535E-01  2197   0.659E-01    0.570E+00
RMM:   4    -0.497001680278E+03    0.30467E-01   -0.50510E-02  2102   0.448E-01    0.488E+00
RMM:   5    -0.496932678961E+03    0.69001E-01   -0.23296E-02  2100   0.318E-01    0.130E+00
RMM:   6    -0.496929224757E+03    0.34542E-02   -0.59509E-03  2100   0.158E-01    0.640E-01
RMM:   7    -0.496928924825E+03    0.29993E-03   -0.21517E-03  2100   0.944E-02    0.706E-01
RMM:   8    -0.496927605284E+03    0.13195E-02   -0.13069E-03  2102   0.732E-02    0.484E-01
RMM:   9    -0.496927242859E+03    0.36243E-03   -0.10238E-03  2100   0.646E-02    0.434E-01
RMM:  10    -0.496927594084E+03   -0.35123E-03   -0.16946E-03  2100   0.784E-02    0.640E-01
RMM:  11    -0.496926209627E+03    0.13845E-02   -0.16491E-03  2103   0.784E-02    0.305E-01
RMM:  12    -0.496926009408E+03    0.20022E-03   -0.72246E-04  2100   0.523E-02    0.257E-01
RMM:  13    -0.496925981135E+03    0.28273E-04   -0.32609E-04  2101   0.350E-02    0.194E-01
RMM:  14    -0.496925989867E+03   -0.87313E-05   -0.13352E-04  2100   0.235E-02    0.105E-01
RMM:  15    -0.496926096135E+03   -0.10627E-03   -0.60396E-05  2097   0.154E-02    0.103E-01
RMM:  16    -0.496926191283E+03   -0.95148E-04   -0.34021E-05  2096   0.119E-02    0.578E-02
RMM:  17    -0.496926290066E+03   -0.98784E-04   -0.18612E-05  2093   0.845E-03    0.498E-02
RMM:  18    -0.496926404311E+03   -0.11424E-03   -0.12720E-05  2083   0.705E-03    0.436E-02
RMM:  19    -0.496926533700E+03   -0.12939E-03   -0.96959E-06  1994   0.607E-03    0.401E-02
RMM:  20    -0.496926639653E+03   -0.10595E-03   -0.63797E-06  1825   0.514E-03    0.233E-02
RMM:  21    -0.496926735972E+03   -0.96319E-04   -0.40324E-06  1678   0.420E-03    0.250E-02
RMM:  22    -0.496926842593E+03   -0.10662E-03   -0.24782E-06  1406   0.350E-03    0.150E-02
RMM:  23    -0.496926914952E+03   -0.72359E-04   -0.15561E-06  1253   0.277E-03    0.163E-02
RMM:  24    -0.496927036256E+03   -0.12130E-03   -0.14052E-06  1294   0.239E-03    0.145E-02
RMM:  25    -0.496927108400E+03   -0.72144E-04   -0.90942E-07  1209   0.205E-03    0.125E-02
RMM:  26    -0.496927197343E+03   -0.88942E-04   -0.84811E-07  1250   0.171E-03    0.138E-02
RMM:  27    -0.496927311416E+03   -0.11407E-03   -0.97800E-07  1291   0.179E-03    0.981E-03
RMM:  28    -0.496927409655E+03   -0.98238E-04   -0.89286E-07  1257   0.164E-03    0.113E-02
RMM:  29    -0.496927595514E+03   -0.18586E-03   -0.21994E-06  1403   0.188E-03    0.881E-03
RMM:  30    -0.496927691587E+03   -0.96073E-04   -0.12452E-06  1323   0.173E-03    0.750E-03
RMM:  31    -0.496927820595E+03   -0.12901E-03   -0.25760E-06  1441   0.180E-03    0.759E-03
RMM:  32    -0.496927853418E+03   -0.32823E-04   -0.78730E-07  1293   0.137E-03    0.513E-03
RMM:  33    -0.496927879107E+03   -0.25689E-04   -0.70305E-07  1309   0.104E-03    0.373E-03
RMM:  34    -0.496927883630E+03   -0.45228E-05   -0.24091E-07  1149   0.855E-04    0.295E-03
RMM:  35    -0.496927883987E+03   -0.35731E-06   -0.29420E-07  1165   0.676E-04
  14 F= -.53268203E+03 E0= -.53269489E+03  d E =-.193515E-01  mag=    85.7524
       N       E                     dE             d eps       ncg     rms          rms(c)
DAV:   1    -0.496890296036E+03    0.37588E-01   -0.84287E+00  2136   0.348E+00    0.107E+00
RMM:   2    -0.496928871321E+03   -0.38575E-01   -0.12782E-01  2101   0.792E-01    0.231E+00
RMM:   3    -0.496965255713E+03   -0.36384E-01   -0.57473E-02  2198   0.467E-01    0.398E+00
RMM:   4    -0.496951008781E+03    0.14247E-01   -0.25276E-02  2102   0.317E-01    0.344E+00
RMM:   5    -0.496916246651E+03    0.34762E-01   -0.11582E-02  2100   0.225E-01    0.907E-01
RMM:   6    -0.496914495726E+03    0.17509E-02   -0.28633E-03  2100   0.110E-01    0.412E-01
RMM:   7    -0.496914353013E+03    0.14271E-03   -0.93686E-04  2100   0.621E-02    0.454E-01
RMM:   8    -0.496913790108E+03    0.56291E-03   -0.61434E-04  2103   0.494E-02    0.350E-01
RMM:   9    -0.496913532255E+03    0.25785E-03   -0.51650E-04  2099   0.455E-02    0.294E-01
RMM:  10    -0.496913683911E+03   -0.15166E-03   -0.83574E-04  2100   0.549E-02    0.440E-01
RMM:  11    -0.496913036545E+03    0.64737E-03   -0.84976E-04  2102   0.559E-02    0.242E-01
RMM:  12    -0.496912845577E+03    0.19097E-03   -0.37066E-04  2100   0.375E-02    0.165E-01
RMM:  13    -0.496912833644E+03    0.11933E-04   -0.13793E-04  2101   0.229E-02    0.120E-01
RMM:  14    -0.496912855347E+03   -0.21702E-04   -0.53371E-05  2098   0.147E-02    0.712E-02
RMM:  15    -0.496912900995E+03   -0.45648E-04   -0.23025E-05  2096   0.965E-03    0.568E-02
RMM:  16    -0.496912956626E+03   -0.55631E-04   -0.13070E-05  2075   0.736E-03    0.378E-02
RMM:  17    -0.496913020622E+03   -0.63996E-04   -0.83557E-06  1991   0.552E-03    0.324E-02
RMM:  18    -0.496913074908E+03   -0.54285E-04   -0.52679E-06  1758   0.464E-03    0.270E-02
RMM:  19    -0.496913158721E+03   -0.83813E-04   -0.50022E-06  1757   0.447E-03    0.302E-02
RMM:  20    -0.496913226546E+03   -0.67825E-04   -0.34310E-06  1596   0.395E-03    0.151E-02
RMM:  21    -0.496913276815E+03   -0.50269E-04   -0.18706E-06  1273   0.297E-03    0.168E-02
RMM:  22    -0.496913341898E+03   -0.65083E-04   -0.12825E-06  1225   0.262E-03    0.104E-02
RMM:  23    -0.496913380739E+03   -0.38841E-04   -0.67300E-07  1187   0.183E-03    0.104E-02
RMM:  24    -0.496913452724E+03   -0.71986E-04   -0.63304E-07  1227   0.152E-03    0.878E-03
RMM:  25    -0.496913503145E+03   -0.50420E-04   -0.47399E-07  1194   0.141E-03    0.770E-03
RMM:  26    -0.496913585451E+03   -0.82306E-04   -0.63241E-07  1257   0.127E-03    0.906E-03
RMM:  27    -0.496913651472E+03   -0.66020E-04   -0.58101E-07  1227   0.134E-03    0.759E-03
RMM:  28    -0.496913723556E+03   -0.72085E-04   -0.68427E-07  1275   0.126E-03    0.100E-02
RMM:  29    -0.496913818648E+03   -0.95092E-04   -0.11617E-06  1339   0.144E-03    0.653E-03
RMM:  30    -0.496913872451E+03   -0.53803E-04   -0.71721E-07  1276   0.125E-03    0.529E-03
RMM:  31    -0.496913930657E+03   -0.58206E-04   -0.11457E-06  1359   0.124E-03    0.471E-03
RMM:  32    -0.496913944845E+03   -0.14188E-04   -0.36292E-07  1198   0.947E-04    0.341E-03
RMM:  33    -0.496913955540E+03   -0.10695E-04   -0.35673E-07  1207   0.730E-04    0.234E-03
RMM:  34    -0.496913956491E+03   -0.95119E-06   -0.13668E-07  1065   0.596E-04
  15 F= -.53268608E+03 E0= -.53269914E+03  d E =-.234044E-01  mag=    85.7603
       N       E                     dE             d eps       ncg     rms          rms(c)
DAV:   1    -0.496848089707E+03    0.65866E-01   -0.16778E+01  2096   0.490E+00    0.155E+00
RMM:   2    -0.496970371043E+03   -0.12228E+00   -0.28252E-01  2100   0.119E+00    0.459E+00
RMM:   3    -0.496973776497E+03   -0.34055E-02   -0.11022E-01  2207   0.648E-01    0.491E+00
RMM:   4    -0.496988383103E+03   -0.14607E-01   -0.54764E-02  2101   0.463E-01    0.553E+00
RMM:   5    -0.496902225061E+03    0.86158E-01   -0.31700E-02  2100   0.376E-01    0.158E+00
RMM:   6    -0.496897168046E+03    0.50570E-02   -0.72676E-03  2101   0.178E-01    0.737E-01
RMM:   7    -0.496896726336E+03    0.44171E-03   -0.25420E-03  2100   0.103E-01    0.769E-01
RMM:   8    -0.496895175025E+03    0.15513E-02   -0.13416E-03  2102   0.750E-02    0.469E-01
RMM:   9    -0.496895037135E+03    0.13789E-03   -0.11225E-03  2100   0.678E-02    0.499E-01
RMM:  10    -0.496895389016E+03   -0.35188E-03   -0.17492E-03  2100   0.796E-02    0.686E-01
RMM:  11    -0.496893880082E+03    0.15089E-02   -0.16668E-03  2104   0.795E-02    0.327E-01
RMM:  12    -0.496893747702E+03    0.13238E-03   -0.77742E-04  2100   0.549E-02    0.297E-01
RMM:  13    -0.496893697932E+03    0.49770E-04   -0.41801E-04  2102   0.395E-02    0.225E-01
RMM:  14    -0.496893708786E+03   -0.10854E-04   -0.19245E-04  2099   0.281E-02    0.140E-01
RMM:  15    -0.496893823565E+03   -0.11478E-03   -0.84723E-05  2098   0.186E-02    0.111E-01
RMM:  16    -0.496893927271E+03   -0.10371E-03   -0.44421E-05  2096   0.137E-02    0.629E-02
RMM:  17    -0.496894034588E+03   -0.10732E-03   -0.22290E-05  2093   0.957E-03    0.594E-02
RMM:  18    -0.496894204863E+03   -0.17027E-03   -0.16139E-05  2096   0.783E-03    0.536E-02
RMM:  19    -0.496894315541E+03   -0.11068E-03   -0.10503E-05  1963   0.656E-03    0.308E-02
RMM:  20    -0.496894463940E+03   -0.14840E-03   -0.72673E-06  1894   0.534E-03    0.337E-02
RMM:  21    -0.496894586088E+03   -0.12215E-03   -0.52237E-06  1764   0.477E-03    0.229E-02
RMM:  22    -0.496894694920E+03   -0.10883E-03   -0.25478E-06  1423   0.345E-03    0.168E-02
RMM:  23    -0.496894789890E+03   -0.94970E-04   -0.20055E-06  1328   0.309E-03    0.188E-02
RMM:  24    -0.496894910248E+03   -0.12036E-03   -0.15024E-06  1302   0.256E-03    0.152E-02
RMM:  25    -0.496894991341E+03   -0.81094E-04   -0.10522E-06  1223   0.216E-03    0.136E-02
RMM:  26    -0.496895097552E+03   -0.10621E-03   -0.93956E-07  1258   0.185E-03    0.122E-02
RMM:  27    -0.496895197030E+03   -0.99478E-04   -0.82642E-07  1239   0.176E-03    0.955E-03
RMM:  28    -0.496895323473E+03   -0.12644E-03   -0.10403E-06  1305   0.170E-03    0.110E-02
RMM:  29    -0.496895498544E+03   -0.17507E-03   -0.17247E-06  1373   0.189E-03    0.838E-03
RMM:  30    -0.496895621424E+03   -0.12288E-03   -0.13684E-06  1335   0.174E-03    0.900E-03
RMM:  31    -0.496895776177E+03   -0.15475E-03   -0.25796E-06  1442   0.190E-03    0.819E-03
RMM:  32    -0.496895837967E+03   -0.61790E-04   -0.11034E-06  1321   0.151E-03    0.693E-03
RMM:  33    -0.496895882113E+03   -0.44146E-04   -0.12083E-06  1367   0.131E-03    0.411E-03
RMM:  34    -0.496895890117E+03   -0.80036E-05   -0.32379E-07  1201   0.960E-04    0.328E-03
RMM:  35    -0.496895893190E+03   -0.30728E-05   -0.44382E-07  1206   0.778E-04    0.279E-03
RMM:  36    -0.496895891439E+03    0.17506E-05   -0.11207E-07  1073   0.622E-04    0.179E-03
RMM:  37    -0.496895889952E+03    0.14872E-05   -0.52589E-08   886   0.396E-04    0.186E-03
RMM:  38    -0.496895889496E+03    0.45607E-06   -0.25295E-08   830   0.361E-04
  16 F= -.53269882E+03 E0= -.53271176E+03  d E =-.127360E-01  mag=    85.7591
       N       E                     dE             d eps       ncg     rms          rms(c)
DAV:   1    -0.496882233633E+03    0.13656E-01   -0.16476E+00  2172   0.154E+00    0.481E-01
RMM:   2    -0.496893733625E+03   -0.11500E-01   -0.26630E-02  2100   0.364E-01    0.143E+00
RMM:   3    -0.496894407708E+03   -0.67408E-03   -0.10738E-02  2204   0.203E-01    0.153E+00
RMM:   4    -0.496896546835E+03   -0.21391E-02   -0.54828E-03  2101   0.147E-01    0.176E+00
RMM:   5    -0.496887435339E+03    0.91115E-02   -0.31546E-03  2100   0.119E-01    0.466E-01
RMM:   6    -0.496886976283E+03    0.45906E-03   -0.66240E-04  2101   0.540E-02    0.182E-01
RMM:   7    -0.496886948058E+03    0.28224E-04   -0.18788E-04  2101   0.279E-02    0.186E-01
RMM:   8    -0.496886850729E+03    0.97330E-04   -0.12985E-04  2102   0.222E-02    0.176E-01
RMM:   9    -0.496886759913E+03    0.90816E-04   -0.11716E-04  2097   0.215E-02    0.129E-01
RMM:  10    -0.496886770279E+03   -0.10366E-04   -0.15776E-04  2102   0.238E-02    0.192E-01
RMM:  11    -0.496886642006E+03    0.12827E-03   -0.17037E-04  2100   0.249E-02    0.131E-01
RMM:  12    -0.496886574595E+03    0.67411E-04   -0.75463E-05  2101   0.173E-02    0.780E-02
RMM:  13    -0.496886566306E+03    0.82894E-05   -0.25059E-05  2096   0.988E-03    0.438E-02
RMM:  14    -0.496886576894E+03   -0.10588E-04   -0.85998E-06  1877   0.588E-03    0.349E-02
RMM:  15    -0.496886587693E+03   -0.10799E-04   -0.38214E-06  1656   0.423E-03    0.201E-02
RMM:  16    -0.496886601018E+03   -0.13325E-04   -0.20741E-06  1335   0.322E-03    0.153E-02
RMM:  17    -0.496886619096E+03   -0.18078E-04   -0.15998E-06  1207   0.269E-03    0.148E-02
RMM:  18    -0.496886634411E+03   -0.15315E-04   -0.12114E-06  1187   0.242E-03    0.115E-02
RMM:  19    -0.496886656057E+03   -0.21646E-04   -0.10534E-06  1195   0.214E-03    0.128E-02
RMM:  20    -0.496886678572E+03   -0.22515E-04   -0.82743E-07  1186   0.207E-03    0.737E-03
RMM:  21    -0.496886690397E+03   -0.11825E-04   -0.40217E-07  1171   0.138E-03    0.627E-03
RMM:  22    -0.496886710530E+03   -0.20133E-04   -0.24198E-07  1183   0.107E-03    0.527E-03
RMM:  23    -0.496886720371E+03   -0.98415E-05   -0.12403E-07  1162   0.775E-04    0.471E-03
RMM:  24    -0.496886739108E+03   -0.18737E-04   -0.11702E-07  1116   0.621E-04    0.493E-03
RMM:  25    -0.496886756090E+03   -0.16982E-04   -0.10832E-07  1109   0.634E-04    0.368E-03
RMM:  26    -0.496886782183E+03   -0.26093E-04   -0.15566E-07  1139   0.604E-04    0.399E-03
RMM:  27    -0.496886812636E+03   -0.30453E-04   -0.21268E-07  1171   0.682E-04    0.309E-03
RMM:  28    -0.496886841066E+03   -0.28429E-04   -0.23083E-07  1165   0.667E-04    0.359E-03
RMM:  29    -0.496886875699E+03   -0.34633E-04   -0.38500E-07  1219   0.734E-04    0.248E-03
RMM:  30    -0.496886892997E+03   -0.17298E-04   -0.20617E-07  1105   0.619E-04    0.243E-03
RMM:  31    -0.496886908755E+03   -0.15758E-04   -0.24183E-07  1112   0.595E-04    0.189E-03
RMM:  32    -0.496886913038E+03   -0.42832E-05   -0.87280E-08  1019   0.469E-04    0.148E-03
RMM:  33    -0.496886915120E+03   -0.20817E-05   -0.12268E-07   948   0.393E-04    0.126E-03
RMM:  34    -0.496886914453E+03    0.66646E-06   -0.32959E-08   823   0.347E-04
  17 F= -.53269959E+03 E0= -.53271248E+03  d E =-.135031E-01  mag=    85.7585
       N       E                     dE             d eps       ncg     rms          rms(c)
DAV:   1    -0.496831560068E+03    0.55355E-01   -0.12048E+01  2096   0.415E+00    0.130E+00
RMM:   2    -0.496928973887E+03   -0.97414E-01   -0.20739E-01  2100   0.103E+00    0.416E+00
RMM:   3    -0.496918775004E+03    0.10199E-01   -0.75542E-02  2217   0.539E-01    0.403E+00
RMM:   4    -0.496924099906E+03   -0.53249E-02   -0.42720E-02  2101   0.409E-01    0.442E+00
RMM:   5    -0.496871984859E+03    0.52115E-01   -0.24264E-02  2100   0.330E-01    0.152E+00
RMM:   6    -0.496866066074E+03    0.59188E-02   -0.55723E-03  2100   0.155E-01    0.550E-01
RMM:   7    -0.496866005850E+03    0.60224E-04   -0.17961E-03  2100   0.857E-02    0.618E-01
RMM:   8    -0.496864983384E+03    0.10225E-02   -0.96594E-04  2102   0.627E-02    0.435E-01
RMM:   9    -0.496864688041E+03    0.29534E-03   -0.81986E-04  2100   0.577E-02    0.410E-01
RMM:  10    -0.496864887970E+03   -0.19993E-03   -0.12751E-03  2102   0.689E-02    0.569E-01
RMM:  11    -0.496863838095E+03    0.10499E-02   -0.12371E-03  2102   0.681E-02    0.342E-01
RMM:  12    -0.496863471793E+03    0.36630E-03   -0.59689E-04  2100   0.483E-02    0.199E-01
RMM:  13    -0.496863508818E+03   -0.37024E-04   -0.26609E-04  2102   0.310E-02    0.195E-01
RMM:  14    -0.496863513134E+03   -0.43161E-05   -0.12859E-04  2100   0.229E-02    0.115E-01
RMM:  15    -0.496863588750E+03   -0.75616E-04   -0.53556E-05  2096   0.149E-02    0.770E-02
RMM:  16    -0.496863680514E+03   -0.91764E-04   -0.27008E-05  2096   0.105E-02    0.577E-02
RMM:  17    -0.496863761920E+03   -0.81406E-04   -0.13207E-05  2061   0.727E-03    0.396E-02
RMM:  18    -0.496863872359E+03   -0.11044E-03   -0.96426E-06  1959   0.616E-03    0.406E-02
RMM:  19    -0.496863998638E+03   -0.12628E-03   -0.84773E-06  1919   0.581E-03    0.367E-02
RMM:  20    -0.496864115750E+03   -0.11711E-03   -0.59760E-06  1809   0.491E-03    0.245E-02
RMM:  21    -0.496864201143E+03   -0.85393E-04   -0.34864E-06  1597   0.390E-03    0.209E-02
RMM:  22    -0.496864333587E+03   -0.13244E-03   -0.23129E-06  1352   0.322E-03    0.151E-02
RMM:  23    -0.496864403534E+03   -0.69947E-04   -0.14341E-06  1219   0.267E-03    0.147E-02
RMM:  24    -0.496864524016E+03   -0.12048E-03   -0.11825E-06  1270   0.216E-03    0.133E-02
RMM:  25    -0.496864594546E+03   -0.70529E-04   -0.77202E-07  1197   0.186E-03    0.108E-02
RMM:  26    -0.496864704507E+03   -0.10996E-03   -0.80195E-07  1251   0.158E-03    0.113E-02
RMM:  27    -0.496864796885E+03   -0.92378E-04   -0.64286E-07  1220   0.153E-03    0.782E-03
RMM:  28    -0.496864928445E+03   -0.13156E-03   -0.95595E-07  1307   0.149E-03    0.954E-03
RMM:  29    -0.496865116602E+03   -0.18816E-03   -0.18211E-06  1381   0.178E-03    0.702E-03
RMM:  30    -0.496865253241E+03   -0.13664E-03   -0.15282E-06  1357   0.161E-03    0.876E-03
RMM:  31    -0.496865396354E+03   -0.14311E-03   -0.22979E-06  1420   0.174E-03    0.631E-03
RMM:  32    -0.496865454774E+03   -0.58420E-04   -0.98147E-07  1318   0.132E-03    0.566E-03
RMM:  33    -0.496865495182E+03   -0.40408E-04   -0.10745E-06  1356   0.119E-03    0.360E-03
RMM:  34    -0.496865501376E+03   -0.61940E-05   -0.27444E-07  1143   0.839E-04    0.267E-03
RMM:  35    -0.496865501431E+03   -0.55035E-07   -0.35751E-07  1177   0.682E-04
  18 F= -.53270620E+03 E0= -.53271889E+03  d E =-.661687E-02  mag=    85.7501
       N       E                     dE             d eps       ncg     rms          rms(c)
DAV:   1    -0.496865348966E+03    0.15241E-03   -0.33490E-04  2188   0.220E-02    0.705E-03
RMM:   2    -0.496865351839E+03   -0.28736E-05   -0.58486E-06  1976   0.543E-03    0.229E-02
RMM:   3    -0.496865352691E+03   -0.85163E-06   -0.22271E-06  1338   0.327E-03    0.188E-02
RMM:   4    -0.496865354479E+03   -0.17880E-05   -0.12848E-06  1179   0.260E-03    0.260E-02
RMM:   5    -0.496865352697E+03    0.17825E-05   -0.71278E-07  1163   0.210E-03    0.842E-03
RMM:   6    -0.496865352937E+03   -0.24033E-06   -0.20961E-07  1149   0.110E-03
  19 F= -.53270620E+03 E0= -.53271889E+03  d E =-.661700E-02  mag=    85.7500
       N       E                     dE             d eps       ncg     rms          rms(c)
DAV:   1    -0.496825424883E+03    0.39928E-01   -0.78945E+00  2096   0.334E+00    0.103E+00
RMM:   2    -0.496872019861E+03   -0.46595E-01   -0.12639E-01  2100   0.788E-01    0.260E+00
RMM:   3    -0.496893572583E+03   -0.21553E-01   -0.47081E-02  2230   0.420E-01    0.362E+00
RMM:   4    -0.496883377916E+03    0.10195E-01   -0.26401E-02  2100   0.321E-01    0.346E+00
RMM:   5    -0.496850585604E+03    0.32792E-01   -0.14877E-02  2100   0.258E-01    0.991E-01
RMM:   6    -0.496848106563E+03    0.24790E-02   -0.28651E-03  2100   0.111E-01    0.407E-01
RMM:   7    -0.496848088148E+03    0.18415E-04   -0.10538E-03  2100   0.654E-02    0.493E-01
RMM:   8    -0.496847331642E+03    0.75651E-03   -0.62917E-04  2101   0.506E-02    0.333E-01
RMM:   9    -0.496847148266E+03    0.18338E-03   -0.51737E-04  2100   0.456E-02    0.325E-01
RMM:  10    -0.496847317989E+03   -0.16972E-03   -0.87736E-04  2101   0.567E-02    0.506E-01
RMM:  11    -0.496846426578E+03    0.89141E-03   -0.84232E-04  2100   0.556E-02    0.239E-01
RMM:  12    -0.496846254319E+03    0.17226E-03   -0.34543E-04  2100   0.371E-02    0.144E-01
RMM:  13    -0.496846275822E+03   -0.21502E-04   -0.14639E-04  2102   0.234E-02    0.128E-01
RMM:  14    -0.496846293657E+03   -0.17835E-04   -0.53926E-05  2096   0.149E-02    0.697E-02
RMM:  15    -0.496846354179E+03   -0.60523E-04   -0.23022E-05  2095   0.974E-03    0.593E-02
RMM:  16    -0.496846428542E+03   -0.74363E-04   -0.13601E-05  2087   0.741E-03    0.381E-02
RMM:  17    -0.496846486947E+03   -0.58404E-04   -0.71371E-06  1861   0.540E-03    0.297E-02
RMM:  18    -0.496846593567E+03   -0.10662E-03   -0.62569E-06  1894   0.491E-03    0.296E-02
RMM:  19    -0.496846680209E+03   -0.86642E-04   -0.46377E-06  1713   0.440E-03    0.264E-02
RMM:  20    -0.496846772764E+03   -0.92555E-04   -0.35385E-06  1585   0.381E-03    0.222E-02
RMM:  21    -0.496846844935E+03   -0.72171E-04   -0.21849E-06  1336   0.321E-03    0.149E-02
RMM:  22    -0.496846927997E+03   -0.83062E-04   -0.14016E-06  1243   0.254E-03    0.135E-02
RMM:  23    -0.496846991776E+03   -0.63778E-04   -0.91903E-07  1203   0.209E-03    0.112E-02
RMM:  24    -0.496847083810E+03   -0.92034E-04   -0.76280E-07  1249   0.165E-03    0.940E-03
RMM:  25    -0.496847160151E+03   -0.76341E-04   -0.62639E-07  1209   0.155E-03    0.892E-03
RMM:  26    -0.496847283742E+03   -0.12359E-03   -0.89897E-07  1296   0.145E-03    0.869E-03
RMM:  27    -0.496847376525E+03   -0.92783E-04   -0.74338E-07  1246   0.145E-03    0.859E-03
RMM:  28    -0.496847522542E+03   -0.14602E-03   -0.14527E-06  1362   0.154E-03    0.111E-02
RMM:  29    -0.496847649581E+03   -0.12704E-03   -0.15055E-06  1362   0.162E-03    0.713E-03
RMM:  30    -0.496847749732E+03   -0.10015E-03   -0.13923E-06  1358   0.147E-03    0.730E-03
RMM:  31    -0.496847840060E+03   -0.90328E-04   -0.18650E-06  1401   0.151E-03    0.535E-03
RMM:  32    -0.496847866502E+03   -0.26442E-04   -0.74384E-07  1295   0.116E-03    0.408E-03
RMM:  33    -0.496847877566E+03   -0.11064E-04   -0.72036E-07  1290   0.944E-04    0.335E-03
RMM:  34    -0.496847873765E+03    0.38005E-05   -0.19890E-07  1112   0.755E-04    0.180E-03
RMM:  35    -0.496847867221E+03    0.65445E-05   -0.13982E-07  1012   0.513E-04    0.208E-03
RMM:  36    -0.496847864461E+03    0.27597E-05   -0.52967E-08   951   0.468E-04    0.120E-03
RMM:  37    -0.496847862720E+03    0.17412E-05   -0.21053E-08   698   0.309E-04    0.128E-03
RMM:  38    -0.496847862618E+03    0.10213E-06   -0.79135E-09   590   0.281E-04
  20 F= -.53271010E+03 E0= -.53272279E+03  d E =-.389862E-02  mag=    85.7321
       N       E                     dE             d eps       ncg     rms          rms(c)
DAV:   1    -0.496849069547E+03   -0.12068E-02   -0.27375E-02  2176   0.197E-01    0.602E-02
RMM:   2    -0.496849230959E+03   -0.16141E-03   -0.42676E-04  2100   0.455E-02    0.150E-01
RMM:   3    -0.496849304039E+03   -0.73080E-04   -0.16157E-04  2223   0.246E-02    0.214E-01
RMM:   4    -0.496849264236E+03    0.39804E-04   -0.92607E-05  2097   0.191E-02    0.203E-01
RMM:   5    -0.496849155512E+03    0.10872E-03   -0.52798E-05  2096   0.154E-02    0.567E-02
RMM:   6    -0.496849147444E+03    0.80672E-05   -0.10015E-05  1908   0.666E-03    0.230E-02
RMM:   7    -0.496849146443E+03    0.10016E-05   -0.27417E-06  1547   0.353E-03    0.227E-02
RMM:   8    -0.496849143764E+03    0.26792E-05   -0.20233E-06  1294   0.315E-03    0.216E-02
RMM:   9    -0.496849141336E+03    0.24276E-05   -0.18016E-06  1237   0.300E-03    0.170E-02
RMM:  10    -0.496849139399E+03    0.19372E-05   -0.29084E-06  1534   0.340E-03    0.263E-02
RMM:  11    -0.496849135635E+03    0.37633E-05   -0.32807E-06  1552   0.385E-03    0.170E-02
RMM:  12    -0.496849134902E+03    0.73339E-06   -0.15526E-06  1188   0.284E-03
  21 F= -.53271011E+03 E0= -.53272280E+03  d E =-.390451E-02  mag=    85.7326
       N       E                     dE             d eps       ncg     rms          rms(c)
DAV:   1    -0.496824702021E+03    0.24434E-01   -0.40712E+00  2096   0.241E+00    0.821E-01
RMM:   2    -0.496846437707E+03   -0.21736E-01   -0.62164E-02  2100   0.546E-01    0.170E+00
RMM:   3    -0.496875442963E+03   -0.29005E-01   -0.29551E-02  2171   0.335E-01    0.330E+00
RMM:   4    -0.496857751858E+03    0.17691E-01   -0.15386E-02  2100   0.249E-01    0.258E+00
RMM:   5    -0.496839056034E+03    0.18696E-01   -0.81389E-03  2100   0.190E-01    0.662E-01
RMM:   6    -0.496838002652E+03    0.10534E-02   -0.15303E-03  2100   0.806E-02    0.296E-01
RMM:   7    -0.496837982568E+03    0.20084E-04   -0.55032E-04  2100   0.471E-02    0.353E-01
RMM:   8    -0.496837602304E+03    0.38026E-03   -0.34937E-04  2102   0.376E-02    0.250E-01
RMM:   9    -0.496837467399E+03    0.13491E-03   -0.27311E-04  2100   0.329E-02    0.228E-01
RMM:  10    -0.496837447141E+03    0.20258E-04   -0.37962E-04  2100   0.367E-02    0.291E-01
RMM:  11    -0.496837138058E+03    0.30908E-03   -0.42398E-04  2098   0.395E-02    0.202E-01
RMM:  12    -0.496836924137E+03    0.21392E-03   -0.21814E-04  2101   0.286E-02    0.106E-01
RMM:  13    -0.496836910857E+03    0.13280E-04   -0.69660E-05  2098   0.165E-02    0.769E-02
RMM:  14    -0.496836934897E+03   -0.24040E-04   -0.24632E-05  2095   0.983E-03    0.576E-02
RMM:  15    -0.496836952587E+03   -0.17690E-04   -0.10175E-05  1894   0.653E-03    0.294E-02
RMM:  16    -0.496836991081E+03   -0.38494E-04   -0.55243E-06  1761   0.491E-03    0.313E-02
RMM:  17    -0.496837033864E+03   -0.42783E-04   -0.37273E-06  1657   0.402E-03    0.187E-02
RMM:  18    -0.496837071302E+03   -0.37439E-04   -0.24384E-06  1393   0.336E-03    0.163E-02
RMM:  19    -0.496837146479E+03   -0.75177E-04   -0.24592E-06  1367   0.318E-03    0.168E-02
RMM:  20    -0.496837186250E+03   -0.39770E-04   -0.16156E-06  1210   0.293E-03    0.121E-02
RMM:  21    -0.496837226776E+03   -0.40526E-04   -0.97610E-07  1197   0.206E-03    0.142E-02
RMM:  22    -0.496837268372E+03   -0.41596E-04   -0.69029E-07  1189   0.183E-03    0.861E-03
RMM:  23    -0.496837303241E+03   -0.34869E-04   -0.40149E-07  1184   0.133E-03    0.770E-03
RMM:  24    -0.496837358169E+03   -0.54928E-04   -0.38866E-07  1205   0.115E-03    0.593E-03
RMM:  25    -0.496837397528E+03   -0.39359E-04   -0.27547E-07  1184   0.994E-04    0.614E-03
RMM:  26    -0.496837471833E+03   -0.74305E-04   -0.49472E-07  1243   0.101E-03    0.636E-03
RMM:  27    -0.496837520040E+03   -0.48208E-04   -0.34022E-07  1186   0.968E-04    0.576E-03
RMM:  28    -0.496837599605E+03   -0.79565E-04   -0.69846E-07  1285   0.104E-03    0.775E-03
RMM:  29    -0.496837675545E+03   -0.75940E-04   -0.85146E-07  1317   0.116E-03    0.436E-03
RMM:  30    -0.496837729302E+03   -0.53757E-04   -0.69646E-07  1281   0.102E-03    0.477E-03
RMM:  31    -0.496837777026E+03   -0.47724E-04   -0.94891E-07  1342   0.108E-03    0.312E-03
RMM:  32    -0.496837788428E+03   -0.11402E-04   -0.33570E-07  1140   0.794E-04    0.293E-03
RMM:  33    -0.496837790905E+03   -0.24775E-05   -0.32469E-07  1147   0.663E-04    0.178E-03
RMM:  34    -0.496837788798E+03    0.21073E-05   -0.81543E-08  1002   0.496E-04    0.149E-03
RMM:  35    -0.496837785153E+03    0.36451E-05   -0.59091E-08   891   0.374E-04    0.112E-03
RMM:  36    -0.496837783818E+03    0.13350E-05   -0.19148E-08   736   0.317E-04    0.856E-04
RMM:  37    -0.496837782901E+03    0.91710E-06   -0.60297E-09   464   0.264E-04
  22 F= -.53271264E+03 E0= -.53272530E+03  d E =-.252809E-02  mag=    85.7226
       N       E                     dE             d eps       ncg     rms          rms(c)
DAV:   1    -0.496836451984E+03    0.13318E-02   -0.32567E-02  2168   0.216E-01    0.732E-02
RMM:   2    -0.496836617496E+03   -0.16551E-03   -0.49732E-04  2100   0.490E-02    0.153E-01
RMM:   3    -0.496836843285E+03   -0.22579E-03   -0.24200E-04  2160   0.304E-02    0.284E-01
RMM:   4    -0.496836730554E+03    0.11273E-03   -0.12330E-04  2097   0.224E-02    0.234E-01
RMM:   5    -0.496836572035E+03    0.15852E-03   -0.65309E-05  2098   0.170E-02    0.613E-02
RMM:   6    -0.496836567082E+03    0.49526E-05   -0.13637E-05  1991   0.771E-03    0.269E-02
RMM:   7    -0.496836567744E+03   -0.66185E-06   -0.37714E-06  1647   0.405E-03
  23 F= -.53271267E+03 E0= -.53272533E+03  d E =-.255848E-02  mag=    85.7224
       N       E                     dE             d eps       ncg     rms          rms(c)
DAV:   1    -0.496818755500E+03    0.17812E-01   -0.27223E+00  2096   0.198E+00    0.657E-01
RMM:   2    -0.496831105808E+03   -0.12350E-01   -0.42564E-02  2100   0.463E-01    0.122E+00
RMM:   3    -0.496843117442E+03   -0.12012E-01   -0.22080E-02  2168   0.295E-01    0.216E+00
RMM:   4    -0.496838914548E+03    0.42029E-02   -0.93454E-03  2101   0.195E-01    0.186E+00
RMM:   5    -0.496828199291E+03    0.10715E-01   -0.34868E-03  2101   0.122E-01    0.594E-01
RMM:   6    -0.496827397460E+03    0.80183E-03   -0.96724E-04  2102   0.636E-02    0.249E-01
RMM:   7    -0.496827318423E+03    0.79037E-04   -0.33078E-04  2101   0.364E-02    0.255E-01
RMM:   8    -0.496827123527E+03    0.19490E-03   -0.22740E-04  2101   0.294E-02    0.221E-01
RMM:   9    -0.496826934729E+03    0.18880E-03   -0.20246E-04  2100   0.283E-02    0.157E-01
RMM:  10    -0.496826977202E+03   -0.42473E-04   -0.29970E-04  2100   0.328E-02    0.283E-01
RMM:  11    -0.496826683424E+03    0.29378E-03   -0.31231E-04  2100   0.334E-02    0.172E-01
RMM:  12    -0.496826548407E+03    0.13502E-03   -0.14580E-04  2101   0.240E-02    0.838E-02
RMM:  13    -0.496826537447E+03    0.10960E-04   -0.44108E-05  2097   0.131E-02    0.553E-02
RMM:  14    -0.496826549709E+03   -0.12262E-04   -0.13914E-05  2071   0.742E-03    0.388E-02
RMM:  15    -0.496826569524E+03   -0.19815E-04   -0.65232E-06  1806   0.523E-03    0.273E-02
RMM:  16    -0.496826590659E+03   -0.21135E-04   -0.33500E-06  1600   0.388E-03    0.231E-02
RMM:  17    -0.496826622542E+03   -0.31883E-04   -0.27611E-06  1432   0.333E-03    0.197E-02
RMM:  18    -0.496826655314E+03   -0.32772E-04   -0.22236E-06  1294   0.322E-03    0.134E-02
RMM:  19    -0.496826704137E+03   -0.48823E-04   -0.20345E-06  1288   0.294E-03    0.175E-02
RMM:  20    -0.496826752868E+03   -0.48731E-04   -0.15323E-06  1225   0.279E-03    0.107E-02
RMM:  21    -0.496826780157E+03   -0.27289E-04   -0.76699E-07  1184   0.189E-03    0.103E-02
RMM:  22    -0.496826823361E+03   -0.43204E-04   -0.52730E-07  1193   0.153E-03    0.842E-03
RMM:  23    -0.496826851639E+03   -0.28278E-04   -0.29944E-07  1184   0.118E-03    0.642E-03
RMM:  24    -0.496826912801E+03   -0.61162E-04   -0.39284E-07  1214   0.967E-04    0.677E-03
RMM:  25    -0.496826961043E+03   -0.48242E-04   -0.33454E-07  1197   0.103E-03    0.553E-03
RMM:  26    -0.496827025008E+03   -0.63965E-04   -0.46329E-07  1232   0.965E-04    0.782E-03
RMM:  27    -0.496827123875E+03   -0.98868E-04   -0.10120E-06  1324   0.119E-03    0.575E-03
RMM:  28    -0.496827179592E+03   -0.55717E-04   -0.58856E-07  1252   0.105E-03    0.507E-03
RMM:  29    -0.496827254498E+03   -0.74906E-04   -0.11326E-06  1351   0.110E-03    0.407E-03
RMM:  30    -0.496827284825E+03   -0.30327E-04   -0.49479E-07  1217   0.951E-04    0.274E-03
RMM:  31    -0.496827304060E+03   -0.19234E-04   -0.48074E-07  1226   0.776E-04    0.293E-03
RMM:  32    -0.496827307294E+03   -0.32345E-05   -0.22438E-07  1131   0.680E-04    0.183E-03
RMM:  33    -0.496827304172E+03    0.31219E-05   -0.12742E-07   988   0.496E-04    0.192E-03
RMM:  34    -0.496827301250E+03    0.29222E-05   -0.57020E-08   921   0.424E-04    0.964E-04
RMM:  35    -0.496827299042E+03    0.22086E-05   -0.24552E-08   716   0.318E-04    0.105E-03
RMM:  36    -0.496827297341E+03    0.17009E-05   -0.10424E-08   560   0.287E-04    0.630E-04
RMM:  37    -0.496827297097E+03    0.24390E-06   -0.42059E-09   406   0.267E-04
  24 F= -.53271384E+03 E0= -.53272635E+03  d E =-.117508E-02  mag=    85.7108
