 vasp.5.4.4.18Apr17-6-g9f103f2a35 (build Jun 19 2019 11:58:18) complex          
  
 executed on             LinuxIFC date 2022.03.01  15:23:52
 running on   32 total cores
 distrk:  each k-point on   32 cores,    1 groups
 distr:  one band on NCORES_PER_BAND=   8 cores,    4 groups


--------------------------------------------------------------------------------------------------------


 INCAR:
 POTCAR:    PAW_PBE Pt 04Feb2005                  
 POTCAR:    PAW_PBE Pd 04Jan2005                  
 POTCAR:    PAW_PBE Ni 02Aug2007                  
 POTCAR:    PAW_PBE Co 02Aug2007                  
 POTCAR:    PAW_PBE Fe 06Sep2000                  
 POTCAR:    PAW_PBE Pt 04Feb2005                  
   VRHFIN =Pt: s1d9                                                             
   LEXCH  = PE                                                                  
   EATOM  =   729.1176 eV,   53.5886 Ry                                         
                                                                                
   TITEL  = PAW_PBE Pt 04Feb2005                                                
   LULTRA =        F    use ultrasoft PP ?                                      
   IUNSCR =        1    unscreen: 0-lin 1-nonlin 2-no                           
   RPACOR =    2.330    partial core radius                                     
   POMASS =  195.080; ZVAL   =   10.000    mass and valenz                      
   RCORE  =    2.600    outmost cutoff radius                                   
   RWIGS  =    2.750; RWIGS  =    1.455    wigner-seitz radius (au A)           
   ENMAX  =  230.283; ENMIN  =  172.712 eV                                      
   ICORE  =        3    local potential                                         
   LCOR   =        T    correct aug charges                                     
   LPAW   =        T    paw PP                                                  
   EAUG   =  358.966                                                            
   DEXC   =    0.000                                                            
   RMAX   =    2.658    core radius for proj-oper                               
   RAUG   =    1.300    factor for augmentation sphere                          
   RDEP   =    2.761    radius for radial grids                                 
   RDEPT  =    2.203    core radius for aug-charge                              
                                                                                
   Atomic configuration                                                         
   16 entries                                                                   
     n  l   j            E        occ.                                          
     1  0  0.50    -78401.1885   2.0000                                         
     2  0  0.50    -13770.7750   2.0000                                         
     2  1  1.50    -11931.0468   6.0000                                         
     3  0  0.50     -3234.7234   2.0000                                         
     3  1  1.50     -2699.2216   6.0000                                         
     3  2  2.50     -2119.5714  10.0000                                         
     4  0  0.50      -695.1528   2.0000                                         
     4  1  1.50      -519.6034   6.0000                                         
     4  2  2.50      -306.6786  10.0000                                         
     4  3  3.50       -70.1041  14.0000                                         
     5  0  0.50      -101.7747   2.0000                                         
     5  1  1.50       -55.9873   6.0000                                         
     5  2  2.50        -6.1423   9.0000                                         
     6  0  0.50        -5.6573   1.0000                                         
     6  1  1.50        -6.8029   0.0000                                         
     5  3  2.50        -1.3606   0.0000                                         
   Description                                                                  
     l       E           TYP  RCUT    TYP  RCUT                                 
     2     -6.1423404     23  2.500                                             
     2     -7.5029230     23  2.500                                             
     0     -5.6573207     23  2.500                                             
     0      0.7416693     23  2.500                                             
     1     -2.7211652     23  2.600                                             
     1     20.4087390     23  2.600                                             
     3     -1.3605826     23  2.500                                             
  local pseudopotential read in
  partial core-charges read in
  partial kinetic energy density read in
  atomic valenz-charges read in
  non local Contribution for L=           2  read in
    real space projection operators read in
  non local Contribution for L=           2  read in
    real space projection operators read in
  non local Contribution for L=           0  read in
    real space projection operators read in
  non local Contribution for L=           0  read in
    real space projection operators read in
  non local Contribution for L=           1  read in
    real space projection operators read in
  non local Contribution for L=           1  read in
    real space projection operators read in
    PAW grid and wavefunctions read in
 
   number of l-projection  operators is LMAX  =           6
   number of lm-projection operators is LMMAX =          18
 
 POTCAR:    PAW_PBE Pd 04Jan2005                  
   VRHFIN =Pd : s1 d9                                                           
   LEXCH  = PE                                                                  
   EATOM  =   809.7530 eV,   59.5152 Ry                                         
                                                                                
   TITEL  = PAW_PBE Pd 04Jan2005                                                
   LULTRA =        F    use ultrasoft PP ?                                      
   IUNSCR =        1    unscreen: 0-lin 1-nonlin 2-no                           
   RPACOR =    2.000    partial core radius                                     
   POMASS =  106.420; ZVAL   =   10.000    mass and valenz                      
   RCORE  =    2.600    outmost cutoff radius                                   
   RWIGS  =    2.710; RWIGS  =    1.434    wigner-seitz radius (au A)           
   ENMAX  =  250.925; ENMIN  =  188.194 eV                                      
   ICORE  =        3    local potential                                         
   LCOR   =        T    correct aug charges                                     
   LPAW   =        T    paw PP                                                  
   EAUG   =  416.230                                                            
   DEXC   =    0.000                                                            
   RMAX   =    2.653    core radius for proj-oper                               
   RAUG   =    1.300    factor for augmentation sphere                          
   RDEP   =    2.734    radius for radial grids                                 
   RDEPT  =    2.103    core radius for aug-charge                              
                                                                                
   Atomic configuration                                                         
   12 entries                                                                   
     n  l   j            E        occ.                                          
     1  0  0.50    -24164.6631   2.0000                                         
     2  0  0.50     -3530.9218   2.0000                                         
     2  1  1.50     -3165.6822   6.0000                                         
     3  0  0.50      -639.4577   2.0000                                         
     3  1  1.50      -519.4532   6.0000                                         
     3  2  2.50      -328.9757  10.0000                                         
     4  0  0.50       -88.7014   2.0000                                         
     4  1  1.50       -54.4540   6.0000                                         
     4  2  2.50        -6.6878   9.0000                                         
     5  0  0.50        -4.3543   1.0000                                         
     5  1  0.50        -1.3606   0.0000                                         
     4  3  2.50        -1.3606   0.0000                                         
   Description                                                                  
     l       E           TYP  RCUT    TYP  RCUT                                 
     2     -6.6878251     23  2.400                                             
     2     -8.0484077     23  2.400                                             
     0     -4.3542939     23  2.400                                             
     0      4.3406793     23  2.400                                             
     1     -4.0817478     23  2.600                                             
     1     15.8380318     23  2.600                                             
     3     -4.0817478     23  2.400                                             
  local pseudopotential read in
  partial core-charges read in
  partial kinetic energy density read in
  atomic valenz-charges read in
  non local Contribution for L=           2  read in
    real space projection operators read in
  non local Contribution for L=           2  read in
    real space projection operators read in
  non local Contribution for L=           0  read in
    real space projection operators read in
  non local Contribution for L=           0  read in
    real space projection operators read in
  non local Contribution for L=           1  read in
    real space projection operators read in
  non local Contribution for L=           1  read in
    real space projection operators read in
    PAW grid and wavefunctions read in
 
   number of l-projection  operators is LMAX  =           6
   number of lm-projection operators is LMMAX =          18
 
 POTCAR:    PAW_PBE Ni 02Aug2007                  
   VRHFIN =Ni:                                                                  
   LEXCH  = PE                                                                  
   EATOM  =  1077.6739 eV,   79.2068 Ry                                         
                                                                                
   TITEL  = PAW_PBE Ni 02Aug2007                                                
   LULTRA =        F    use ultrasoft PP ?                                      
   IUNSCR =        1    unscreen: 0-lin 1-nonlin 2-no                           
   RPACOR =    2.000    partial core radius                                     
   POMASS =   58.690; ZVAL   =   10.000    mass and valenz                      
   RCORE  =    2.300    outmost cutoff radius                                   
   RWIGS  =    2.430; RWIGS  =    1.286    wigner-seitz radius (au A)           
   ENMAX  =  269.532; ENMIN  =  202.149 eV                                      
   RCLOC  =    1.201    cutoff for local pot                                    
   LCOR   =        T    correct aug charges                                     
   LPAW   =        T    paw PP                                                  
   EAUG   =  544.565                                                            
   DEXC   =    0.000                                                            
   RMAX   =    2.357    core radius for proj-oper                               
   RAUG   =    1.300    factor for augmentation sphere                          
   RDEP   =    2.390    radius for radial grids                                 
   RDEPT  =    1.838    core radius for aug-charge                              
                                                                                
   Atomic configuration                                                         
    9 entries                                                                   
     n  l   j            E        occ.                                          
     1  0  0.50     -8206.4253   2.0000                                         
     2  0  0.50      -976.1748   2.0000                                         
     2  1  1.50      -839.0571   6.0000                                         
     3  0  0.50      -105.9991   2.0000                                         
     3  1  1.50       -66.4603   6.0000                                         
     3  2  2.50        -4.6458   9.0000                                         
     4  0  0.50        -4.4926   1.0000                                         
     4  1  1.50        -4.0817   0.0000                                         
     4  3  2.50        -1.3606   0.0000                                         
   Description                                                                  
     l       E           TYP  RCUT    TYP  RCUT                                 
     2     -4.6457903     23  2.300                                             
     2     -6.0063729     23  2.300                                             
     0     -4.4925590     23  2.300                                             
     0      5.0102601     23  2.300                                             
     1     -2.7211652     23  2.300                                             
     1     16.5183231     23  2.300                                             
  local pseudopotential read in
  partial core-charges read in
  partial kinetic energy density read in
  atomic valenz-charges read in
  non local Contribution for L=           2  read in
    real space projection operators read in
  non local Contribution for L=           2  read in
    real space projection operators read in
  non local Contribution for L=           0  read in
    real space projection operators read in
  non local Contribution for L=           0  read in
    real space projection operators read in
  non local Contribution for L=           1  read in
    real space projection operators read in
  non local Contribution for L=           1  read in
    real space projection operators read in
    PAW grid and wavefunctions read in
 
   number of l-projection  operators is LMAX  =           6
   number of lm-projection operators is LMMAX =          18
 
 POTCAR:    PAW_PBE Co 02Aug2007                  
   VRHFIN =Co: d8 s1                                                            
   LEXCH  = PE                                                                  
   EATOM  =   813.3670 eV,   59.7808 Ry                                         
                                                                                
   TITEL  = PAW_PBE Co 02Aug2007                                                
   LULTRA =        F    use ultrasoft PP ?                                      
   IUNSCR =        1    unscreen: 0-lin 1-nonlin 2-no                           
   RPACOR =    2.000    partial core radius                                     
   POMASS =   58.933; ZVAL   =    9.000    mass and valenz                      
   RCORE  =    2.300    outmost cutoff radius                                   
   RWIGS  =    2.460; RWIGS  =    1.302    wigner-seitz radius (au A)           
   ENMAX  =  267.968; ENMIN  =  200.976 eV                                      
   RCLOC  =    1.203    cutoff for local pot                                    
   LCOR   =        T    correct aug charges                                     
   LPAW   =        T    paw PP                                                  
   EAUG   =  477.818                                                            
   DEXC   =    0.000                                                            
   RMAX   =    2.360    core radius for proj-oper                               
   RAUG   =    1.300    factor for augmentation sphere                          
   RDEP   =    2.393    radius for radial grids                                 
   RDEPT  =    1.864    core radius for aug-charge                              
                                                                                
   Atomic configuration                                                         
    9 entries                                                                   
     n  l   j            E        occ.                                          
     1  0  0.50     -7587.6674   2.0000                                         
     2  0  0.50      -893.6084   2.0000                                         
     2  1  1.50      -764.5805   6.0000                                         
     3  0  0.50       -97.5973   2.0000                                         
     3  1  1.50       -60.9648   6.0000                                         
     3  2  2.50        -4.2382   8.0000                                         
     4  0  0.50        -4.3746   1.0000                                         
     4  1  1.50        -4.0817   0.0000                                         
     4  3  2.50        -1.3606   0.0000                                         
   Description                                                                  
     l       E           TYP  RCUT    TYP  RCUT                                 
     2     -4.2382362     23  2.300                                             
     2     -5.5988188     23  2.300                                             
     0     -4.3745797     23  2.300                                             
     0      5.7660125     23  2.300                                             
     1     -2.7211652     23  2.300                                             
     1     16.9860234     23  2.300                                             
  local pseudopotential read in
  partial core-charges read in
  partial kinetic energy density read in
  atomic valenz-charges read in
  non local Contribution for L=           2  read in
    real space projection operators read in
  non local Contribution for L=           2  read in
    real space projection operators read in
  non local Contribution for L=           0  read in
    real space projection operators read in
  non local Contribution for L=           0  read in
    real space projection operators read in
  non local Contribution for L=           1  read in
    real space projection operators read in
  non local Contribution for L=           1  read in
    real space projection operators read in
    PAW grid and wavefunctions read in
 
   number of l-projection  operators is LMAX  =           6
   number of lm-projection operators is LMMAX =          18
 
 POTCAR:    PAW_PBE Fe 06Sep2000                  
   VRHFIN =Fe:  d7 s1                                                           
   LEXCH  = PE                                                                  
   EATOM  =   594.3153 eV,   43.6809 Ry                                         
                                                                                
   TITEL  = PAW_PBE Fe 06Sep2000                                                
   LULTRA =        F    use ultrasoft PP ?                                      
   IUNSCR =        1    unscreen: 0-lin 1-nonlin 2-no                           
   RPACOR =    2.000    partial core radius                                     
   POMASS =   55.847; ZVAL   =    8.000    mass and valenz                      
   RCORE  =    2.300    outmost cutoff radius                                   
   RWIGS  =    2.460; RWIGS  =    1.302    wigner-seitz radius (au A)           
   ENMAX  =  267.882; ENMIN  =  200.911 eV                                      
   RCLOC  =    1.701    cutoff for local pot                                    
   LCOR   =        T    correct aug charges                                     
   LPAW   =        T    paw PP                                                  
   EAUG   =  511.368                                                            
   DEXC   =    0.000                                                            
   RMAX   =    2.356    core radius for proj-oper                               
   RAUG   =    1.300    factor for augmentation sphere                          
   RDEP   =    2.442    radius for radial grids                                 
   RDEPT  =    1.890    core radius for aug-charge                              
                                                                                
   Atomic configuration                                                         
    9 entries                                                                   
     n  l   j            E        occ.                                          
     1  0  0.50     -6993.8440   2.0000                                         
     2  0  0.50      -814.6047   2.0000                                         
     2  1  1.50      -693.3689   6.0000                                         
     3  0  0.50       -89.4732   2.0000                                         
     3  1  1.50       -55.6373   6.0000                                         
     3  2  2.50        -3.8151   7.0000                                         
     4  0  0.50        -4.2551   1.0000                                         
     4  1  1.50        -3.4015   0.0000                                         
     4  3  2.50        -1.3606   0.0000                                         
   Description                                                                  
     l       E           TYP  RCUT    TYP  RCUT                                 
     2     -3.8151135     23  2.300                                             
     2     -5.1756961     23  2.300                                             
     0     -4.2550963     23  2.300                                             
     0      7.2035603     23  2.300                                             
     1     -2.7211652     23  2.300                                             
     1     18.4316424     23  2.300                                             
  local pseudopotential read in
  partial core-charges read in
  partial kinetic energy density read in
  atomic valenz-charges read in
  non local Contribution for L=           2  read in
    real space projection operators read in
  non local Contribution for L=           2  read in
    real space projection operators read in
  non local Contribution for L=           0  read in
    real space projection operators read in
  non local Contribution for L=           0  read in
    real space projection operators read in
  non local Contribution for L=           1  read in
    real space projection operators read in
  non local Contribution for L=           1  read in
    real space projection operators read in
    PAW grid and wavefunctions read in
 
   number of l-projection  operators is LMAX  =           6
   number of lm-projection operators is LMMAX =          18
 
 Optimization of the real space projectors (new method)

 maximal supplied QI-value         = 14.36
 optimisation between [QCUT,QGAM] = [ 11.35, 22.84] = [ 36.05,146.02] Ry 
 Optimized for a Real-space Cutoff    1.52 Angstroem

   l    n(q)    QCUT    max X(q) W(low)/X(q) W(high)/X(q)  e(spline) 
   2      9    11.346    66.195    0.18E-03    0.31E-04    0.24E-06
   2      9    11.346    64.643    0.18E-03    0.31E-04    0.25E-06
   0     10    11.346    95.520    0.43E-04    0.40E-05    0.18E-06
   0     10    11.346    63.403    0.42E-04    0.39E-05    0.17E-06
   1     10    11.346    19.961    0.83E-04    0.43E-04    0.12E-06
   1     10    11.346    13.289    0.69E-04    0.37E-04    0.98E-07
 Optimization of the real space projectors (new method)

 maximal supplied QI-value         = 14.36
 optimisation between [QCUT,QGAM] = [ 11.35, 22.84] = [ 36.05,146.02] Ry 
 Optimized for a Real-space Cutoff    1.47 Angstroem

   l    n(q)    QCUT    max X(q) W(low)/X(q) W(high)/X(q)  e(spline) 
   2      9    11.346    59.108    0.74E-04    0.81E-04    0.26E-06
   2      9    11.346    58.101    0.74E-04    0.83E-04    0.27E-06
   0     10    11.346   102.235    0.26E-04    0.31E-04    0.16E-06
   0     10    11.346    58.388    0.23E-04    0.29E-04    0.15E-06
   1     10    11.346    22.191    0.23E-03    0.26E-03    0.14E-06
   1     10    11.346    15.590    0.19E-03    0.22E-03    0.12E-06
 Optimization of the real space projectors (new method)

 maximal supplied QI-value         = 16.25
 optimisation between [QCUT,QGAM] = [ 11.38, 22.75] = [ 36.24,144.96] Ry 
 Optimized for a Real-space Cutoff    1.47 Angstroem

   l    n(q)    QCUT    max X(q) W(low)/X(q) W(high)/X(q)  e(spline) 
   2      9    11.376    60.317    0.17E-03    0.16E-04    0.16E-06
   2      9    11.376    55.921    0.17E-03    0.16E-04    0.17E-06
   0     10    11.376    51.690    0.45E-04    0.60E-04    0.21E-06
   0     10    11.376    30.015    0.37E-04    0.55E-04    0.19E-06
   1     10    11.376    18.849    0.83E-04    0.11E-03    0.92E-07
   1     10    11.376    14.624    0.69E-04    0.92E-04    0.82E-07
 Optimization of the real space projectors (new method)

 maximal supplied QI-value         = 16.25
 optimisation between [QCUT,QGAM] = [ 11.38, 22.75] = [ 36.24,144.96] Ry 
 Optimized for a Real-space Cutoff    1.43 Angstroem

   l    n(q)    QCUT    max X(q) W(low)/X(q) W(high)/X(q)  e(spline) 
   2      9    11.376    65.824    0.18E-03    0.28E-04    0.14E-06
   2      9    11.376    61.429    0.18E-03    0.29E-04    0.14E-06
   0     10    11.376    56.174    0.51E-04    0.12E-03    0.20E-06
   0     10    11.376    31.263    0.46E-04    0.11E-03    0.18E-06
   1      9    11.376    19.828    0.23E-03    0.17E-03    0.10E-06
   1      9    11.376    15.139    0.20E-03    0.14E-03    0.89E-07
 Optimization of the real space projectors (new method)

 maximal supplied QI-value         = 16.25
 optimisation between [QCUT,QGAM] = [ 11.38, 22.75] = [ 36.24,144.96] Ry 
 Optimized for a Real-space Cutoff    1.52 Angstroem

   l    n(q)    QCUT    max X(q) W(low)/X(q) W(high)/X(q)  e(spline) 
   2      9    11.376    80.901    0.22E-03    0.86E-04    0.27E-06
   2      9    11.376    75.754    0.23E-03    0.87E-04    0.27E-06
   0     10    11.376    58.752    0.56E-04    0.38E-04    0.25E-06
   0     10    11.376    30.679    0.47E-04    0.35E-04    0.23E-06
   1     10    11.376    17.977    0.50E-04    0.42E-04    0.12E-06
   1     10    11.376    13.559    0.42E-04    0.37E-04    0.11E-06
  PAW_PBE Pt 04Feb2005                  :
 energy of atom  1       EATOM= -729.1176
 kinetic energy error for atom=    0.0039 (will be added to EATOM!!)
  PAW_PBE Pd 04Jan2005                  :
 energy of atom  2       EATOM= -809.7530
 kinetic energy error for atom=    0.0049 (will be added to EATOM!!)
  PAW_PBE Ni 02Aug2007                  :
 energy of atom  3       EATOM=-1077.6739
 kinetic energy error for atom=    0.0030 (will be added to EATOM!!)
  PAW_PBE Co 02Aug2007                  :
 energy of atom  4       EATOM= -813.3670
 kinetic energy error for atom=    0.0028 (will be added to EATOM!!)
  PAW_PBE Fe 06Sep2000                  :
 energy of atom  5       EATOM= -594.3153
 kinetic energy error for atom=    0.0026 (will be added to EATOM!!)
 
 
 POSCAR: Pt   Pd   Ni   Co   Fe                  
  positions in direct lattice
  No initial velocities read in
 exchange correlation table for  LEXCH =        8
   RHO(1)=    0.500       N(1)  =     2000
   RHO(2)=  100.500       N(2)  =     4000
 


--------------------------------------------------------------------------------------------------------


 ion  position               nearest neighbor table
   1  0.603  0.115  0.095-  53 2.56  79 2.57  80 2.58  41 2.60  32 2.60  59 2.64  44 2.64  70 2.66
                            66 2.67
   2  0.429  0.542  0.186-  34 2.52  40 2.53  50 2.55  68 2.64  13 2.64  38 2.65  18 2.67  25 2.67
                            46 2.67  52 2.69  20 2.74  22 2.76  16 3.44
   3  0.179  0.785  0.469-  24 2.38  23 2.43   7 2.52  72 2.55  64 2.55  29 2.57  71 2.57  58 2.62
                            51 2.65
   4  0.191  0.283  0.470-  26 2.44  11 2.54  67 2.55   7 2.56  47 2.57   5 2.59  51 2.60  30 2.66
                            33 2.67
   5  0.942  0.034  0.475-   7 2.54  24 2.56   4 2.59  67 2.64  30 2.64  39 2.66  15 2.69   8 2.72
                            43 2.79
   6  0.194  0.792  0.185-  77 2.52  70 2.52  79 2.52  40 2.54  34 2.57  35 2.63  42 2.64  17 2.64
                            37 2.64  10 2.65  16 2.70  49 2.76
   7  0.187  0.033  0.474-  24 2.49  29 2.51   3 2.52  26 2.53   5 2.54   4 2.56  67 2.64  23 2.65
                            54 2.67
   8  0.849  0.862  0.378-  31 2.50  12 2.57  23 2.62  15 2.63  24 2.64  67 2.69  14 2.69  48 2.70
                            43 2.70   5 2.72  56 2.75  21 2.76
   9  0.354  0.612  0.371-  47 2.42  68 2.45  18 2.46  12 2.46  33 2.48  14 2.49  16 2.54  72 2.54
                            64 2.55  11 2.63  51 2.69  58 2.70
  10  0.936  0.540  0.186-  34 2.57  46 2.58  75 2.59  37 2.61  42 2.61  32 2.63  55 2.65   6 2.65
                            27 2.66  19 2.67  66 2.69  49 2.69
  11  0.433  0.528  0.466-  47 2.50  26 2.52   4 2.54  12 2.59  51 2.59  15 2.60  62 2.60   9 2.63
                            58 2.64
  12  0.596  0.621  0.374-   9 2.46  14 2.48  68 2.52   8 2.57  11 2.59  60 2.59  47 2.60  52 2.60
                            48 2.62  15 2.67  31 2.68  62 2.71
  13  0.689  0.788  0.182-  69 2.52  41 2.52  53 2.56  45 2.56  42 2.56  38 2.57  46 2.58  40 2.60
                             2 2.64  56 2.67  48 2.76  68 2.82
  14  0.586  0.856  0.378-  12 2.48  58 2.49   9 2.49  64 2.54  57 2.56  68 2.59  63 2.65  39 2.69
                             8 2.69  15 2.70  56 2.73  43 2.77
  15  0.684  0.775  0.473-  62 2.55  11 2.60   8 2.63  58 2.66  12 2.67  24 2.69   5 2.69  39 2.70
                            14 2.70
  16  0.274  0.690  0.279-  18 2.33  68 2.41  63 2.51  34 2.53   9 2.54  49 2.57  55 2.58  40 2.65
                            72 2.67  64 2.67   6 2.70  17 2.70   2 3.44
  17  0.266  0.947  0.282-  63 2.51  21 2.53  49 2.55  73 2.60  54 2.61  64 2.64   6 2.64  65 2.65
                            79 2.69  16 2.70  23 2.70  77 2.76
  18  0.263  0.459  0.283-  16 2.33   9 2.46  55 2.48  33 2.52  68 2.54  28 2.56  47 2.61  34 2.61
                            52 2.62   2 2.67  73 2.70  25 2.80
  19  0.932  0.280  0.182-  25 2.55  32 2.57  69 2.58  61 2.58  53 2.58  66 2.59  80 2.59  34 2.65
                            10 2.67  28 2.68  76 2.71  55 2.74
  20  0.433  0.279  0.182-  79 2.57  32 2.59  59 2.59  44 2.60  77 2.61  25 2.63  22 2.63  46 2.64
                            73 2.69  65 2.73   2 2.74  52 2.77
  21  0.021  0.947  0.278-  17 2.53  42 2.60  73 2.60  49 2.65  77 2.65  48 2.66  69 2.67  56 2.72
                            28 2.74   8 2.76  23 2.79  67 2.81
  22  0.345  0.362  0.089-  61 2.62  25 2.63  50 2.63  20 2.63  36 2.65  44 2.66  59 2.66  38 2.68
                             2 2.76
  23  0.100  0.859  0.381-   3 2.43  24 2.46  72 2.48  64 2.50  31 2.51  54 2.61   8 2.62  49 2.62
                             7 2.65  67 2.68  17 2.70  21 2.79
  24  0.951  0.791  0.471-   3 2.38  23 2.46   7 2.49  71 2.53   5 2.56  31 2.62   8 2.64  15 2.69
                            62 2.76
  25  0.179  0.280  0.183-  19 2.55  36 2.59  69 2.59  77 2.60  22 2.63  20 2.63  34 2.64  61 2.65
                             2 2.67  28 2.67  73 2.69  18 2.80
  26  0.426  0.280  0.471-   4 2.44  11 2.52   7 2.53  29 2.60  74 2.63  60 2.63  62 2.64  54 2.66
                            47 2.67
  27  0.852  0.622  0.090-  59 2.57  45 2.58  38 2.60  35 2.60  66 2.60  37 2.61  42 2.61  46 2.65
                            10 2.66
  28  0.019  0.211  0.281-  55 2.47  18 2.56  76 2.57  33 2.62  73 2.64  43 2.64  25 2.67  19 2.68
                            56 2.71  21 2.74  67 2.74  69 2.79
  29  0.427  0.029  0.470-   7 2.51   3 2.57  58 2.57  54 2.57  26 2.60  39 2.65  74 2.68  57 2.69
                            64 2.69
  30  0.936  0.287  0.472-  51 2.57  39 2.58  71 2.60  74 2.62   5 2.64  43 2.65   4 2.66  78 2.70
                            33 2.72
  31  0.856  0.623  0.378-   8 2.50  23 2.51  78 2.53  62 2.58  71 2.60  49 2.62  24 2.62  48 2.62
                            60 2.63  72 2.67  12 2.68  75 2.77
  32  0.686  0.285  0.186-  19 2.57  53 2.59  20 2.59  75 2.59  46 2.60  76 2.60   1 2.60  79 2.61
                            65 2.62  59 2.62  10 2.63  66 2.70
  33  0.112  0.377  0.375-  47 2.42   9 2.48  18 2.52  51 2.54  72 2.57  67 2.60  28 2.62  55 2.64
                            78 2.64   4 2.67  43 2.69  30 2.72
  34  0.183  0.538  0.187-   2 2.52  16 2.53  10 2.57   6 2.57  37 2.58  50 2.58  55 2.61  18 2.61
                            61 2.64  25 2.64  19 2.65  40 2.66
  35  0.105  0.869  0.090-  44 2.45  36 2.50  77 2.53  42 2.56  70 2.58  37 2.60  27 2.60  45 2.61
                             6 2.63
  36  0.093  0.106  0.093-  45 2.46  77 2.49  35 2.50  69 2.52  80 2.54  44 2.59  25 2.59  22 2.65
                            61 2.78
  37  0.101  0.616  0.093-  61 2.45  50 2.51  66 2.54  70 2.56  34 2.58  35 2.60  10 2.61  27 2.61
                             6 2.64
  38  0.600  0.621  0.092-  41 2.48  13 2.57  27 2.60  59 2.60  46 2.62  50 2.62  45 2.63   2 2.65
                            22 2.68
  39  0.688  0.039  0.470-  30 2.58  74 2.60  43 2.60  57 2.61  29 2.65   5 2.66  58 2.68  14 2.69
                            15 2.70
  40  0.439  0.792  0.183-  79 2.50  70 2.51  41 2.52   2 2.53  53 2.53   6 2.54  13 2.60  50 2.60
                            63 2.62  16 2.65  34 2.66  68 2.73
  41  0.599  0.861  0.092-  38 2.48  13 2.52  40 2.52  80 2.57  70 2.58  45 2.58  50 2.60   1 2.60
                            53 2.66
  42  0.940  0.795  0.182-  69 2.48  77 2.48  45 2.55  35 2.56  13 2.56  21 2.60  10 2.61  27 2.61
                             6 2.64  46 2.68  48 2.76  49 2.93
  43  0.850  0.124  0.376-  57 2.52  78 2.60  39 2.60  76 2.62  28 2.64  30 2.65  67 2.66  33 2.69
                             8 2.70  56 2.71  14 2.77   5 2.79
  44  0.342  0.103  0.093-  35 2.45  77 2.48  70 2.55  36 2.59  20 2.60  79 2.61   1 2.64  22 2.66
                            59 2.79
  45  0.854  0.873  0.091-  80 2.44  36 2.46  69 2.55  42 2.55  13 2.56  27 2.58  41 2.58  35 2.61
                            38 2.63
  46  0.684  0.536  0.185-  10 2.58  13 2.58  59 2.59  32 2.60  48 2.61  38 2.62  20 2.64  27 2.65
                             2 2.67  42 2.68  52 2.70  75 2.70
  47  0.345  0.374  0.376-   9 2.42  33 2.42  11 2.50  67 2.56   4 2.57  12 2.60  18 2.61  52 2.63
                            60 2.64  26 2.67  73 2.70  54 2.76
  48  0.767  0.690  0.281-  75 2.57  52 2.57  46 2.61  12 2.62  31 2.62  21 2.66  49 2.68  68 2.69
                             8 2.70  56 2.72  13 2.76  42 2.76
  49  0.029  0.695  0.286-  55 2.48  72 2.50  17 2.55  16 2.57  31 2.62  23 2.62  75 2.63  21 2.65
                            48 2.68  10 2.69   6 2.76  42 2.93
  50  0.344  0.616  0.093-  70 2.48  37 2.51  61 2.52   2 2.55  34 2.58  41 2.60  40 2.60  38 2.62
                            22 2.63
  51  0.184  0.531  0.468-  33 2.54  72 2.55  30 2.57  11 2.59  58 2.59   4 2.60  71 2.63   3 2.65
                             9 2.69
  52  0.512  0.452  0.282-  68 2.55  48 2.57  73 2.58  12 2.60  18 2.62  47 2.63  60 2.66  65 2.67
                             2 2.69  46 2.70  75 2.75  20 2.77
  53  0.684  0.033  0.187-  40 2.53  79 2.55  13 2.56   1 2.56  56 2.56  69 2.57  19 2.58  32 2.59
                            80 2.63  41 2.66  76 2.67  63 2.70
  54  0.350  0.109  0.376-  29 2.57  57 2.58  67 2.59  23 2.61  17 2.61  64 2.61  26 2.66   7 2.67
                            65 2.67  60 2.68  73 2.69  47 2.76
  55  0.019  0.451  0.281-  28 2.47  18 2.48  49 2.48  75 2.50  76 2.58  16 2.58  78 2.58  34 2.61
                            33 2.64  10 2.65  72 2.73  19 2.74
  56  0.760  0.950  0.280-  53 2.56  63 2.58  76 2.60  68 2.61  13 2.67  69 2.70  28 2.71  43 2.71
                            48 2.72  21 2.72  14 2.73   8 2.75
  57  0.600  0.110  0.375-  43 2.52  14 2.56  54 2.58  65 2.61  39 2.61  76 2.63  63 2.63  29 2.69
                            60 2.71  64 2.72  74 2.75  78 2.75
  58  0.430  0.782  0.468-  14 2.49  64 2.54  29 2.57  51 2.59   3 2.62  11 2.64  15 2.66  39 2.68
                             9 2.70
  59  0.608  0.373  0.092-  27 2.57  66 2.58  46 2.59  20 2.59  38 2.60  32 2.62   1 2.64  22 2.66
                            44 2.79
  60  0.600  0.373  0.378-  62 2.51  12 2.59  74 2.62  31 2.63  26 2.63  78 2.64  47 2.64  52 2.66
                            54 2.68  57 2.71  65 2.73  75 2.74
  61  0.100  0.378  0.090-  37 2.45  66 2.49  50 2.52  19 2.58  22 2.62  34 2.64  25 2.65  80 2.74
                            36 2.78
  62  0.685  0.529  0.469-  74 2.48  60 2.51  71 2.53  15 2.55  31 2.58  11 2.60  26 2.64  12 2.71
                            24 2.76
  63  0.505  0.940  0.282-  16 2.51  17 2.51  68 2.53  56 2.58  65 2.59  79 2.62  40 2.62  57 2.63
                            64 2.65  14 2.65  53 2.70  76 2.76
  64  0.337  0.850  0.377-  72 2.31  23 2.50  58 2.54  14 2.54   9 2.55   3 2.55  54 2.61  17 2.64
                            63 2.65  16 2.67  29 2.69  57 2.72
  65  0.522  0.199  0.281-  76 2.51  63 2.59  75 2.60  57 2.61  32 2.62  73 2.63  79 2.65  17 2.65
                            52 2.67  54 2.67  20 2.73  60 2.73
  66  0.857  0.373  0.089-  61 2.49  37 2.54  59 2.58  19 2.59  27 2.60   1 2.67  10 2.69  32 2.70
                            80 2.71
  67  0.106  0.121  0.379-   4 2.55  47 2.56  54 2.59  33 2.60   5 2.64   7 2.64  43 2.66  23 2.68
                             8 2.69  73 2.69  28 2.74  21 2.81
  68  0.511  0.698  0.283-  16 2.41   9 2.45  12 2.52  63 2.53  18 2.54  52 2.55  14 2.59  56 2.61
                             2 2.64  48 2.69  40 2.73  13 2.82
  69  0.931  0.030  0.183-  42 2.48  36 2.52  13 2.52  80 2.52  45 2.55  53 2.57  19 2.58  25 2.59
                            77 2.60  21 2.67  56 2.70  28 2.79
  70  0.349  0.859  0.093-  50 2.48  40 2.51   6 2.52  44 2.55  37 2.56  41 2.58  35 2.58  79 2.65
                             1 2.66
  71  0.933  0.537  0.472-  62 2.53  24 2.53   3 2.57  31 2.60  74 2.60  30 2.60  51 2.63  78 2.65
                            72 2.72
  72  0.116  0.627  0.377-  64 2.31  23 2.48  49 2.50   9 2.54  51 2.55   3 2.55  33 2.57  78 2.63
                            16 2.67  31 2.67  71 2.72  55 2.73
  73  0.268  0.200  0.280-  52 2.58  17 2.60  21 2.60  65 2.63  28 2.64  54 2.69  20 2.69  67 2.69
                            25 2.69  47 2.70  18 2.70  77 2.75
  74  0.683  0.288  0.472-  62 2.48  39 2.60  71 2.60  30 2.62  60 2.62  26 2.63  29 2.68  78 2.73
                            57 2.75
  75  0.774  0.445  0.280-  76 2.44  55 2.50  78 2.54  48 2.57  10 2.59  32 2.59  65 2.60  49 2.63
                            46 2.70  60 2.74  52 2.75  31 2.77
  76  0.768  0.206  0.281-  75 2.44  65 2.51  28 2.57  55 2.58  56 2.60  32 2.60  43 2.62  57 2.63
                            78 2.65  53 2.67  19 2.71  63 2.76
  77  0.182  0.030  0.181-  44 2.48  42 2.48  36 2.49   6 2.52  35 2.53  25 2.60  69 2.60  20 2.61
                            79 2.63  21 2.65  73 2.75  17 2.76
  78  0.859  0.379  0.374-  31 2.53  75 2.54  55 2.58  43 2.60  72 2.63  33 2.64  60 2.64  76 2.65
                            71 2.65  30 2.70  74 2.73  57 2.75
  79  0.437  0.033  0.186-  40 2.50   6 2.52  53 2.55   1 2.57  20 2.57  44 2.61  32 2.61  63 2.62
                            77 2.63  65 2.65  70 2.65  17 2.69
  80  0.848  0.106  0.092-  45 2.44  69 2.52  36 2.54  41 2.57   1 2.58  19 2.59  53 2.63  66 2.71
                            61 2.74
 
  LATTYP: Found a triclinic cell.
 ALAT       =    10.4167400801
 B/A-ratio  =     0.9929337439
 C/A-ratio  =     2.2001918215
 COS(alpha) =     0.0018254511
 COS(beta)  =     0.0048898885
 COS(gamma) =     0.5052758951
  
  Lattice vectors:
  
 A1 = (  -9.0254186517,  -5.2009139681,  -0.0280348422)
 A2 = (  -8.9845955007,   5.1242003194,  -0.0030626615)
 A3 = (  -0.0492075792,  -0.0155292439, -22.9187682442)


Analysis of symmetry for initial positions (statically):
=====================================================================
 Subroutine PRICEL returns:
 Original cell was already a primitive cell.
 

 Routine SETGRP: Setting up the symmetry group for a 
 triclinic supercell.


 Subroutine GETGRP returns: Found  1 space group operations
 (whereof  1 operations were pure point group operations)
 out of a pool of  2 trial point group operations.


The static configuration has the point symmetry C_1 .


Analysis of symmetry for dynamics (positions and initial velocities):
=====================================================================
 Subroutine PRICEL returns:
 Original cell was already a primitive cell.
 

 Routine SETGRP: Setting up the symmetry group for a 
 triclinic supercell.


 Subroutine GETGRP returns: Found  1 space group operations
 (whereof  1 operations were pure point group operations)
 out of a pool of  2 trial point group operations.


The dynamic configuration has the point symmetry C_1 .


Analysis of constrained symmetry for selective dynamics:
=====================================================================
 Subroutine PRICEL returns:
 Original cell was already a primitive cell.
 

 Routine SETGRP: Setting up the symmetry group for a 
 triclinic supercell.


 Subroutine GETGRP returns: Found  1 space group operations
 (whereof  1 operations were pure point group operations)
 out of a pool of  2 trial point group operations.


The constrained configuration has the point symmetry C_1 .


Analysis of structural, dynamic, and magnetic symmetry:
=====================================================================
 Subroutine PRICEL returns:
 Original cell was already a primitive cell.
 

 Routine SETGRP: Setting up the symmetry group for a 
 triclinic supercell.


 Subroutine GETGRP returns: Found  1 space group operations
 (whereof  1 operations were pure point group operations)
 out of a pool of  2 trial point group operations.


The magnetic configuration has the point symmetry C_1 .


 Subroutine INISYM returns: Found  1 space group operations
 (whereof  1 operations are pure point group operations),
 and found     1 'primitive' translations

 
 
 KPOINTS: Automatic mesh                          

Automatic generation of k-mesh.
Space group operators:
 irot       det(A)        alpha          n_x          n_y          n_z        tau_x        tau_y        tau_z
    1     1.000000     0.000000     1.000000     0.000000     0.000000     0.000000     0.000000     0.000000
 
 Subroutine IBZKPT returns following result:
 ===========================================
 
 Found      1 irreducible k-points:
 
 Following reciprocal coordinates:
            Coordinates               Weight
  0.000000  0.000000  0.000000      1.000000
 
 Following cartesian coordinates:
            Coordinates               Weight
  0.000000  0.000000  0.000000      1.000000
 


--------------------------------------------------------------------------------------------------------




 Dimension of arrays:
   k-points           NKPTS =      1   k-points in BZ     NKDIM =      1   number of bands    NBANDS=    524
   number of dos      NEDOS =    301   number of ions     NIONS =     80
   non local maximal  LDIM  =      6   non local SUM 2l+1 LMDIM =     18
   total plane-waves  NPLWV = ******
   max r-space proj   IRMAX =   7452   max aug-charges    IRDMAX=  30757
   dimension x,y,z NGX =    80 NGY =   80 NGZ =  168
   dimension x,y,z NGXF=   160 NGYF=  160 NGZF=  336
   support grid    NGXF=   160 NGYF=  160 NGZF=  336
   ions per type =              18  15  16  18  13
   NGX,Y,Z   is equivalent  to a cutoff of  12.86, 12.88, 12.19 a.u.
   NGXF,Y,Z  is equivalent  to a cutoff of  25.72, 25.76, 24.37 a.u.

 SYSTEM =  ML                                      
 POSCAR =  Pt   Pd   Ni   Co   Fe                  

 Startparameter for this run:
   NWRITE =      2    write-flag & timer
   PREC   = accura    normal or accurate (medium, high low for compatibility)
   ISTART =      0    job   : 0-new  1-cont  2-samecut
   ICHARG =      2    charge: 1-file 2-atom 10-const
   ISPIN  =      2    spin polarized calculation?
   LNONCOLLINEAR =      F non collinear calculations
   LSORBIT =      F    spin-orbit coupling
   INIWAV =      1    electr: 0-lowe 1-rand  2-diag
   LASPH  =      F    aspherical Exc in radial PAW
   METAGGA=      F    non-selfconsistent MetaGGA calc.

 Electronic Relaxation 1
   ENCUT  =  500.0 eV  36.75 Ry    6.06 a.u.  18.86 18.83 41.79*2*pi/ulx,y,z
   ENINI  =  500.0     initial cutoff
   ENAUG  =  544.6 eV  augmentation charge cutoff
   NELM   =    300;   NELMIN=  4; NELMDL= -5     # of ELM steps 
   EDIFF  = 0.1E-05   stopping-criterion for ELM
   LREAL  =      T    real-space projection
   NLSPLINE    = F    spline interpolate recip. space projectors
   LCOMPAT=      F    compatible to vasp.4.4
   GGA_COMPAT  = T    GGA compatible to vasp.4.4-vasp.4.6
   LMAXPAW     = -100 max onsite density
   LMAXMIX     =    2 max onsite mixed and CHGCAR
   VOSKOWN=      0    Vosko Wilk Nusair interpolation
   ROPT   =   -0.00025  -0.00025  -0.00025  -0.00025
   ROPT   =   -0.00025
 Ionic relaxation
   EDIFFG = -.5E-01   stopping-criterion for IOM
   NSW    =    300    number of steps for IOM
   NBLOCK =      1;   KBLOCK =    300    inner block; outer block 
   IBRION =      2    ionic relax: 0-MD 1-quasi-New 2-CG
   NFREE  =      1    steps in history (QN), initial steepest desc. (CG)
   ISIF   =      2    stress and relaxation
   IWAVPR =     11    prediction:  0-non 1-charg 2-wave 3-comb
   ISYM   =      2    0-nonsym 1-usesym 2-fastsym
   LCORR  =      T    Harris-Foulkes like correction to forces

   POTIM  = 0.5000    time-step for ionic-motion
   TEIN   =    0.0    initial temperature
   TEBEG  =    0.0;   TEEND  =   0.0 temperature during run
   SMASS  =  -3.00    Nose mass-parameter (am)
   estimated Nose-frequenzy (Omega)   =  0.10E-29 period in steps =****** mass=  -0.244E-26a.u.
   SCALEE = 1.0000    scale energy and forces
   NPACO  =    256;   APACO  = 16.0  distance and # of slots for P.C.
   PSTRESS=    0.0 pullay stress

  Mass of Ions in am
   POMASS = 195.08106.42 58.69 58.93 55.85
  Ionic Valenz
   ZVAL   =  10.00 10.00 10.00  9.00  8.00
  Atomic Wigner-Seitz radii
   RWIGS  =  -1.00 -1.00 -1.00 -1.00 -1.00
  virtual crystal weights 
   VCA    =   1.00  1.00  1.00  1.00  1.00
   NELECT =     756.0000    total number of electrons
   NUPDOWN=      -1.0000    fix difference up-down

 DOS related values:
   EMIN   =  10.00;   EMAX   =-10.00  energy-range for DOS
   EFERMI =   0.00
   ISMEAR =     1;   SIGMA  =   0.10  broadening in eV -4-tet -1-fermi 0-gaus

 Electronic relaxation 2 (details)
   IALGO  =     68    algorithm
   LDIAG  =      T    sub-space diagonalisation (order eigenvalues)
   LSUBROT=      F    optimize rotation matrix (better conditioning)
   TURBO    =      0    0=normal 1=particle mesh
   IRESTART =      0    0=no restart 2=restart with 2 vectors
   NREBOOT  =      0    no. of reboots
   NMIN     =      0    reboot dimension
   EREF     =   0.00    reference energy to select bands
   IMIX   =      4    mixing-type and parameters
     AMIX     =   0.40;   BMIX     =  1.00
     AMIX_MAG =   1.60;   BMIX_MAG =  1.00
     AMIN     =   0.10
     WC   =   100.;   INIMIX=   1;  MIXPRE=   1;  MAXMIX= -45

 Intra band minimization:
   WEIMIN = 0.0010     energy-eigenvalue tresh-hold
   EBREAK =  0.48E-09  absolut break condition
   DEPER  =   0.30     relativ break condition  

   TIME   =   0.40     timestep for ELM

  volume/ion in A,a.u.               =      26.64       179.75
  Fermi-wavevector in a.u.,A,eV,Ry     =   1.158943  2.190084 18.274635  1.343148
  Thomas-Fermi vector in A             =   2.295540
 
 Write flags
   LWAVE        =      F    write WAVECAR
   LDOWNSAMPLE  =      F    k-point downsampling of WAVECAR
   LCHARG       =      F    write CHGCAR
   LVTOT        =      F    write LOCPOT, total local potential
   LVHAR        =      F    write LOCPOT, Hartree potential only
   LELF         =      F    write electronic localiz. function (ELF)
   LORBIT       =     11    0 simple, 1 ext, 2 COOP (PROOUT), +10 PAW based schemes


 Dipole corrections
   LMONO  =      F    monopole corrections only (constant potential shift)
   LDIPOL =      F    correct potential (dipole corrections)
   IDIPOL =      0    1-x, 2-y, 3-z, 4-all directions 
   EPSILON=  1.0000000 bulk dielectric constant

 Exchange correlation treatment:
   GGA     =    PE    GGA type
   LEXCH   =     8    internal setting for exchange type
   VOSKOWN=      0    Vosko Wilk Nusair interpolation
   LHFCALC =     F    Hartree Fock is set to
   LHFONE  =     F    Hartree Fock one center treatment
   AEXX    =    0.0000 exact exchange contribution

 Linear response parameters
   LEPSILON=     F    determine dielectric tensor
   LRPA    =     F    only Hartree local field effects (RPA)
   LNABLA  =     F    use nabla operator in PAW spheres
   LVEL    =     F    velocity operator in full k-point grid
   LINTERFAST=   F  fast interpolation
   KINTER  =     0    interpolate to denser k-point grid
   CSHIFT  =0.1000    complex shift for real part using Kramers Kronig
   OMEGAMAX=  -1.0    maximum frequency
   DEG_THRESHOLD= 0.2000000E-02 threshold for treating states as degnerate
   RTIME   =   -0.100 relaxation time in fs
  (WPLASMAI=    0.000 imaginary part of plasma frequency in eV, 0.658/RTIME)
   DFIELD  = 0.0000000 0.0000000 0.0000000 field for delta impulse in time
 
 Orbital magnetization related:
   ORBITALMAG=     F  switch on orbital magnetization
   LCHIMAG   =     F  perturbation theory with respect to B field
   DQ        =  0.001000  dq finite difference perturbation B field
   LLRAUG    =     F  two centre corrections for induced B field



--------------------------------------------------------------------------------------------------------


 conjugate gradient relaxation of ions
   using selective dynamics as specified on POSCAR
 charge density and potential will be updated during run
 spin polarized calculation
 RMM-DIIS sequential band-by-band and
  variant of blocked Davidson during initial phase
 perform sub-space diagonalisation
    before iterative eigenvector-optimisation
 modified Broyden-mixing scheme, WC =      100.0
 initial mixing is a Kerker type mixing with AMIX =  0.4000 and BMIX =      1.0000
 Hartree-type preconditioning will be used
 using additional bands          146
 real space projection scheme for non local part
 use partial core corrections
 calculate Harris-corrections to forces 
   (improved forces if not selfconsistent)
 use gradient corrections 
 use of overlap-Matrix (Vanderbilt PP)
 Methfessel and Paxton  Order N= 1 SIGMA  =   0.10


--------------------------------------------------------------------------------------------------------


  energy-cutoff  :      500.00
  volume of cell :     2130.89
      direct lattice vectors                 reciprocal lattice vectors
     8.984595501 -5.124200319  0.003062662     0.111051609 -0.000438497 -0.000238135
     0.040823151 10.325114288  0.024972181     0.055113371  0.096633767 -0.000183808
     0.049207579  0.015529244 22.918768244    -0.000074891 -0.000105233  0.043632594

  length of vectors
    10.343132727 10.325225188 22.918826331     0.111052730  0.111245685  0.043632786


 
 k-points in units of 2pi/SCALE and weight: Automatic mesh                          
   0.00000000  0.00000000  0.00000000       1.000
 
 k-points in reciprocal lattice and weights: Automatic mesh                          
   0.00000000  0.00000000  0.00000000       1.000
 
 position of ions in fractional coordinates (direct lattice) 
   0.60303100  0.11499200  0.09483464
   0.42873904  0.54205846  0.18593522
   0.17878979  0.78500102  0.46886330
   0.19050437  0.28253775  0.47036299
   0.94226922  0.03399520  0.47494514
   0.19355017  0.79171909  0.18478051
   0.18718586  0.03324283  0.47382523
   0.84894446  0.86165133  0.37764155
   0.35351224  0.61178336  0.37092108
   0.93573254  0.54015903  0.18644032
   0.43286602  0.52782486  0.46643508
   0.59613216  0.62148685  0.37356594
   0.68928725  0.78840431  0.18214769
   0.58580332  0.85601749  0.37762335
   0.68378365  0.77518904  0.47277565
   0.27438088  0.69041378  0.27864243
   0.26555138  0.94702380  0.28229709
   0.26274649  0.45893765  0.28255067
   0.93215623  0.28025962  0.18156466
   0.43308841  0.27924842  0.18221344
   0.02132760  0.94696259  0.27787999
   0.34531422  0.36235118  0.08853161
   0.10026193  0.85875632  0.38069215
   0.95141714  0.79103055  0.47078228
   0.17872926  0.27957320  0.18306336
   0.42579388  0.28041360  0.47067515
   0.85208885  0.62234539  0.09020749
   0.01871402  0.21096165  0.28147273
   0.42727958  0.02890437  0.47046665
   0.93582382  0.28672244  0.47194240
   0.85550908  0.62285499  0.37813697
   0.68598379  0.28484601  0.18645066
   0.11243072  0.37662767  0.37530269
   0.18323281  0.53763236  0.18663650
   0.10480489  0.86928962  0.09026199
   0.09336141  0.10582362  0.09330515
   0.10094173  0.61566885  0.09289357
   0.60026154  0.62114411  0.09154494
   0.68777170  0.03868910  0.47014872
   0.43934145  0.79189565  0.18322776
   0.59867171  0.86099557  0.09246123
   0.94030541  0.79479403  0.18168425
   0.84983784  0.12389678  0.37605766
   0.34198391  0.10284503  0.09261991
   0.85372275  0.87265510  0.09075901
   0.68411550  0.53563381  0.18515124
   0.34522003  0.37402211  0.37597851
   0.76724144  0.69034917  0.28112507
   0.02866043  0.69494912  0.28645267
   0.34423714  0.61643044  0.09322447
   0.18432456  0.53110370  0.46771995
   0.51229858  0.45187523  0.28180023
   0.68394471  0.03319433  0.18674887
   0.35014530  0.10888062  0.37643623
   0.01914139  0.45059762  0.28061369
   0.75961710  0.95014928  0.27971859
   0.59982262  0.11020865  0.37465996
   0.43039626  0.78187530  0.46760964
   0.60783360  0.37297395  0.09214300
   0.60024627  0.37290124  0.37821894
   0.10016938  0.37786397  0.09036060
   0.68482126  0.52874815  0.46855385
   0.50514841  0.93997483  0.28156422
   0.33748585  0.84964494  0.37654899
   0.52211884  0.19874913  0.28118541
   0.85683774  0.37255621  0.08938991
   0.10602065  0.12144858  0.37932532
   0.51057982  0.69794928  0.28337509
   0.93103395  0.03019697  0.18282944
   0.34869190  0.85902618  0.09296816
   0.93307524  0.53702250  0.47184795
   0.11593740  0.62705460  0.37691689
   0.26823676  0.19994213  0.28037712
   0.68339768  0.28780866  0.47192504
   0.77448659  0.44527598  0.27990924
   0.76824092  0.20599846  0.28098117
   0.18202101  0.02976936  0.18078205
   0.85869398  0.37945760  0.37424123
   0.43707433  0.03269925  0.18615941
   0.84767677  0.10608478  0.09176970
 
 position of ions in cartesian coordinates  (Angst):
   5.42735056 -1.90127336  2.17821153
   3.88332485  3.40275824  4.27625558
   1.66147179  7.19635165 10.76592002
   1.74628424  1.94835642 10.78777950
   8.49066650 -4.46999635 10.88889243
   1.78038306  7.18566975  4.25530541
   1.70646206 -0.60858365 10.86089396
   7.68118075  4.55235148  8.67919656
   3.21939153  4.51102567  8.51741444
   8.43840363  0.78521803  4.28933731
   3.93362569  3.23900323 10.70462408
   5.39975962  3.36802339  8.57901684
   6.23411529  4.61114728  4.19639989
   5.31673313  5.84256911  8.67783274
   6.19842928  4.50741293 10.85688798
   2.50709738  5.72694575  6.40422277
   2.43842336  8.42177433  6.49436404
   2.39330985  3.39660582  6.48797865
   8.39542215 -1.88002309  4.17109201
   3.91149027  0.66686974  4.18440744
   0.24395167  9.67252534  6.39238018
   3.12165732  1.97323297  2.03914166
   0.95460292  8.35890683  8.74674724
   8.60355660  3.29953971 10.81241769
   1.62623123  1.97362358  4.20311564
   3.86019391  0.72075857 10.79560134
   7.68551861  2.06091417  2.08559555
   0.19060062  2.08667983  6.45633385
   3.86326468 -1.88371920 10.78454663
   8.44292652 -1.82757785 10.82636459
   7.73043717  2.05312120  8.68460783
   6.18408995 -0.57115532  4.28243365
   1.04398743  3.31843437  8.61122491
   1.67740444  4.61509222  4.29146561
   0.98155827  8.43987507  2.09072261
   0.84772590  0.61568739  2.14136767
   0.93662526  5.84104815  2.14468995
   5.42296893  3.33894520  2.11544708
   6.20406484 -3.11750956 10.77830209
   3.98864911  5.92798490  4.22047542
   5.41852146  5.82359972  2.14243202
   8.48965000  3.39084737  4.18670674
   7.65901202 -3.06965105  8.62447515
   3.08134313 -0.68906900  2.12634999
   7.71044413  4.63702671  2.10449153
   6.17747811  2.02781075  4.25890948
   3.13543212  2.09868307  8.62736171
   6.93536971  3.20080093  6.46262972
   0.29996806  7.03301572  6.58258443
   3.12258347  4.60222235  2.15303781
   1.70077833  4.54645380 10.73339236
   4.63510921  2.04491894  6.47136750
   6.15551115 -3.15903441  4.28297778
   3.16888229 -0.66416405  8.63124609
   0.20418074  4.55874536  6.44263113
   6.87740471  5.92231352  6.43685927
   5.41209881 -1.92987616  8.59133402
   3.92186483  5.87477683 10.73788023
   5.48089914  0.73776842  2.12297956
   5.42680416  0.78033931  8.67946280
   0.91985342  3.38960390  2.08069642
   6.19748357  1.95750008 10.75397838
   4.59078194  7.12123844  6.47812547
   3.08538812  7.04918348  8.65229004
   4.71297664 -0.61896746  6.45098541
   7.71794810 -0.54253467  2.06063448
   0.97617621  0.71659008  8.69702662
   4.62978985  4.59449345  6.51360112
   8.37519275 -4.45617810  4.19383112
   3.17249861  7.08422007  2.15323532
   8.42844504  0.77088167 10.83044220
   1.08579615  5.88617718  8.65448475
   2.43195771  0.69428055  6.43171272
   6.17502322 -0.52288069 10.82522075
   6.99039995  0.63324768  6.42866657
   6.92456980 -1.80529930  6.44723941
   1.64549630 -0.62253265  4.14460288
   7.74892421 -0.47636520  8.58925387
   3.93743141 -1.89914207  4.26869963
   7.62487941 -3.24690304  2.10849385
 


--------------------------------------------------------------------------------------------------------


 k-point  1 :   0.0000 0.0000 0.0000  plane waves:   54021

 maximum and minimum number of plane-waves per node :      6755     6751

 maximum number of plane-waves:     54021
 maximum index in each direction: 
   IXMAX=   18   IYMAX=   18   IZMAX=   41
   IXMIN=  -18   IYMIN=  -18   IZMIN=  -41


 real space projection operators:
  total allocation   :      75190.50 KBytes
  max/ min on nodes  :       9426.09       9372.66


 parallel 3D FFT for wavefunctions:
    minimum data exchange during FFTs selected (reduces bandwidth)
 parallel 3D FFT for charge:
    minimum data exchange during FFTs selected (reduces bandwidth)


 total amount of memory used by VASP MPI-rank0   133057. kBytes
=======================================================================

   base      :      30000. kBytes
   nonlr-proj:      21687. kBytes
   fftplans  :      13111. kBytes
   grid      :      38873. kBytes
   one-center:        311. kBytes
   wavefun   :      29075. kBytes
 
     INWAV:  cpu time    0.0000: real time    0.0000
 Broyden mixing: mesh for mixing (old mesh)
   NGX = 37   NGY = 37   NGZ = 83
  (NGX  =160   NGY  =160   NGZ  =336)
  gives a total of 113627 points

 initial charge density was supplied:
 charge density of overlapping atoms calculated
 number of electron     756.0000000 magnetization     139.5000000
 keeping initial charge density in first step


--------------------------------------------------------------------------------------------------------


 Maximum index for non-local projection operator          920
 Maximum index for augmentation-charges         1039 (set IRDMAX)


--------------------------------------------------------------------------------------------------------


 First call to EWALD:  gamma=   0.138
 Maximum number of real-space cells 4x 4x 2
 Maximum number of reciprocal cells 2x 2x 5

    FEWALD:  cpu time    0.0029: real time    0.0029


--------------------------------------- Iteration      1(   1)  ---------------------------------------


    POTLOK:  cpu time    0.5544: real time    0.5600
    SETDIJ:  cpu time    0.0317: real time    0.0320
     EDDAV:  cpu time   23.2293: real time   23.4145
       DOS:  cpu time    0.0010: real time    0.0011
    --------------------------------------------
      LOOP:  cpu time   23.8165: real time   24.0075

 eigenvalue-minimisations  :  2096
 total energy-change (2. order) : 0.6776788E+04  (-0.3157168E+05)
 number of electron     756.0000000 magnetization     139.5000000
 augmentation part      756.0000000 magnetization     139.5000000

 Free energy of the ion-electron system (eV)
  ---------------------------------------------------
  alpha Z        PSCENC =      1942.40156902
  Ewald energy   TEWEN  =    237779.37043839
  -Hartree energ DENC   =   -304722.20305891
  -exchange      EXHF   =         0.00000000
  -V(xc)+E(xc)   XCENC  =       512.48120815
  PAW double counting   =     60193.04326899   -60874.34029216
  entropy T*S    EENTRO =         0.00511647
  eigenvalues    EBANDS =      7066.40728108
  atomic energy  EATOM  =     64879.62206431
  Solvation  Ediel_sol  =         0.00000000
  ---------------------------------------------------
  free energy    TOTEN  =      6776.78759534 eV

  energy without entropy =     6776.78247886  energy(sigma->0) =     6776.78588985


--------------------------------------------------------------------------------------------------------




--------------------------------------- Iteration      1(   2)  ---------------------------------------


     EDDAV:  cpu time   23.0541: real time   23.2272
       DOS:  cpu time    0.0012: real time    0.0012
    --------------------------------------------
      LOOP:  cpu time   23.0552: real time   23.2284

 eigenvalue-minimisations  :  2096
 total energy-change (2. order) :-0.6381094E+04  (-0.5826018E+04)
 number of electron     756.0000000 magnetization     139.5000000
 augmentation part      756.0000000 magnetization     139.5000000

 Free energy of the ion-electron system (eV)
  ---------------------------------------------------
  alpha Z        PSCENC =      1942.40156902
  Ewald energy   TEWEN  =    237779.37043839
  -Hartree energ DENC   =   -304722.20305891
  -exchange      EXHF   =         0.00000000
  -V(xc)+E(xc)   XCENC  =       512.48120815
  PAW double counting   =     60193.04326899   -60874.34029216
  entropy T*S    EENTRO =        -0.00056452
  eigenvalues    EBANDS =       685.31876202
  atomic energy  EATOM  =     64879.62206431
  Solvation  Ediel_sol  =         0.00000000
  ---------------------------------------------------
  free energy    TOTEN  =       395.69339528 eV

  energy without entropy =      395.69395981  energy(sigma->0) =      395.69358346


--------------------------------------------------------------------------------------------------------




--------------------------------------- Iteration      1(   3)  ---------------------------------------


     EDDAV:  cpu time   24.7507: real time   24.9373
       DOS:  cpu time    0.0012: real time    0.0012
    --------------------------------------------
      LOOP:  cpu time   24.7518: real time   24.9385

 eigenvalue-minimisations  :  2272
 total energy-change (2. order) :-0.8636741E+03  (-0.7094314E+03)
 number of electron     756.0000000 magnetization     139.5000000
 augmentation part      756.0000000 magnetization     139.5000000

 Free energy of the ion-electron system (eV)
  ---------------------------------------------------
  alpha Z        PSCENC =      1942.40156902
  Ewald energy   TEWEN  =    237779.37043839
  -Hartree energ DENC   =   -304722.20305891
  -exchange      EXHF   =         0.00000000
  -V(xc)+E(xc)   XCENC  =       512.48120815
  PAW double counting   =     60193.04326899   -60874.34029216
  entropy T*S    EENTRO =        -0.00295259
  eigenvalues    EBANDS =      -178.35292295
  atomic energy  EATOM  =     64879.62206431
  Solvation  Ediel_sol  =         0.00000000
  ---------------------------------------------------
  free energy    TOTEN  =      -467.98067775 eV

  energy without entropy =     -467.97772517  energy(sigma->0) =     -467.97969356


--------------------------------------------------------------------------------------------------------




--------------------------------------- Iteration      1(   4)  ---------------------------------------


     EDDAV:  cpu time   25.4606: real time   25.6572
       DOS:  cpu time    0.0014: real time    0.0014
    --------------------------------------------
      LOOP:  cpu time   25.4620: real time   25.6586

 eigenvalue-minimisations  :  2352
 total energy-change (2. order) :-0.7059046E+02  (-0.6650387E+02)
 number of electron     756.0000000 magnetization     139.5000000
 augmentation part      756.0000000 magnetization     139.5000000

 Free energy of the ion-electron system (eV)
  ---------------------------------------------------
  alpha Z        PSCENC =      1942.40156902
  Ewald energy   TEWEN  =    237779.37043839
  -Hartree energ DENC   =   -304722.20305891
  -exchange      EXHF   =         0.00000000
  -V(xc)+E(xc)   XCENC  =       512.48120815
  PAW double counting   =     60193.04326899   -60874.34029216
  entropy T*S    EENTRO =        -0.02080519
  eigenvalues    EBANDS =      -248.92552796
  atomic energy  EATOM  =     64879.62206431
  Solvation  Ediel_sol  =         0.00000000
  ---------------------------------------------------
  free energy    TOTEN  =      -538.57113537 eV

  energy without entropy =     -538.55033018  energy(sigma->0) =     -538.56420030


--------------------------------------------------------------------------------------------------------




--------------------------------------- Iteration      1(   5)  ---------------------------------------


     EDDAV:  cpu time   26.0126: real time   26.2701
       DOS:  cpu time    0.0012: real time    0.0012
    CHARGE:  cpu time    0.6393: real time    0.6435
    MIXING:  cpu time    0.0169: real time    0.0173
    --------------------------------------------
      LOOP:  cpu time   26.6700: real time   26.9322

 eigenvalue-minimisations  :  2408
 total energy-change (2. order) :-0.1814973E+01  (-0.1808113E+01)
 number of electron     756.0000016 magnetization     134.8992753
 augmentation part      332.1808753 magnetization     107.9919714

 Broyden mixing:
  rms(total) = 0.10651E+02    rms(broyden)= 0.10651E+02
  rms(prec ) = 0.10934E+02
  weight for this iteration     100.00

 Free energy of the ion-electron system (eV)
  ---------------------------------------------------
  alpha Z        PSCENC =      1942.40156902
  Ewald energy   TEWEN  =    237779.37043839
  -Hartree energ DENC   =   -304722.20305891
  -exchange      EXHF   =         0.00000000
  -V(xc)+E(xc)   XCENC  =       512.48120815
  PAW double counting   =     60193.04326899   -60874.34029216
  entropy T*S    EENTRO =        -0.02083353
  eigenvalues    EBANDS =      -250.74047270
  atomic energy  EATOM  =     64879.62206431
  Solvation  Ediel_sol  =         0.00000000
  ---------------------------------------------------
  free energy    TOTEN  =      -540.38610845 eV

  energy without entropy =     -540.36527491  energy(sigma->0) =     -540.37916394


--------------------------------------------------------------------------------------------------------




--------------------------------------- Iteration      1(   6)  ---------------------------------------


    POTLOK:  cpu time    0.5287: real time    0.5324
    SETDIJ:  cpu time    0.0320: real time    0.0322
    EDDIAG:  cpu time    3.5389: real time    3.5651
  RMM-DIIS:  cpu time   11.1865: real time   11.2613
    ORTHCH:  cpu time    1.0528: real time    1.0584
       DOS:  cpu time    0.0014: real time    0.0014
    CHARGE:  cpu time    0.6425: real time    0.6464
    MIXING:  cpu time    0.0530: real time    0.0561
    --------------------------------------------
      LOOP:  cpu time   17.0358: real time   17.1533

 eigenvalue-minimisations  :  2103
 total energy-change (2. order) :-0.1547203E+03  (-0.9042204E+02)
 number of electron     756.0000032 magnetization     132.0358737
 augmentation part      390.3381362 magnetization     118.2122266

 Broyden mixing:
  rms(total) = 0.17837E+02    rms(broyden)= 0.17837E+02
  rms(prec ) = 0.19247E+02
  weight for this iteration     100.00

 eigenvalues of (default mixing * dielectric matrix)
  average eigenvalue GAMMA=   0.2549
  0.2549

 Free energy of the ion-electron system (eV)
  ---------------------------------------------------
  alpha Z        PSCENC =      1942.40156902
  Ewald energy   TEWEN  =    237779.37043839
  -Hartree energ DENC   =   -303739.00994526
  -exchange      EXHF   =         0.00000000
  -V(xc)+E(xc)   XCENC  =       468.02946980
  PAW double counting   =     66005.21193019   -66509.63276325
  entropy T*S    EENTRO =         0.01055058
  eigenvalues    EBANDS =     -1521.10975687
  atomic energy  EATOM  =     64879.62206431
  Solvation  Ediel_sol  =         0.00000000
  ---------------------------------------------------
  free energy    TOTEN  =      -695.10644309 eV

  energy without entropy =     -695.11699367  energy(sigma->0) =     -695.10995995


--------------------------------------------------------------------------------------------------------




--------------------------------------- Iteration      1(   7)  ---------------------------------------


    POTLOK:  cpu time    0.5309: real time    0.5346
    SETDIJ:  cpu time    0.0322: real time    0.0324
    EDDIAG:  cpu time    3.5455: real time    3.5712
  RMM-DIIS:  cpu time   11.1677: real time   11.2421
    ORTHCH:  cpu time    1.0490: real time    1.0545
       DOS:  cpu time    0.0013: real time    0.0013
    CHARGE:  cpu time    0.6399: real time    0.6441
    MIXING:  cpu time    0.0169: real time    0.0171
    --------------------------------------------
      LOOP:  cpu time   16.9835: real time   17.0972

 eigenvalue-minimisations  :  2098
 total energy-change (2. order) : 0.1680244E+03  (-0.2788935E+02)
 number of electron     756.0000027 magnetization     129.7542277
 augmentation part      362.1217322 magnetization     104.6940988

 Broyden mixing:
  rms(total) = 0.11445E+02    rms(broyden)= 0.11445E+02
  rms(prec ) = 0.13829E+02
  weight for this iteration     100.00

 eigenvalues of (default mixing * dielectric matrix)
  average eigenvalue GAMMA=   0.2886
  0.3546  0.2227

 Free energy of the ion-electron system (eV)
  ---------------------------------------------------
  alpha Z        PSCENC =      1942.40156902
  Ewald energy   TEWEN  =    237779.37043839
  -Hartree energ DENC   =   -303840.47707004
  -exchange      EXHF   =         0.00000000
  -V(xc)+E(xc)   XCENC  =       475.00407874
  PAW double counting   =     67439.35328842   -68135.71341260
  entropy T*S    EENTRO =         0.01074111
  eigenvalues    EBANDS =     -1066.65374746
  atomic energy  EATOM  =     64879.62206431
  Solvation  Ediel_sol  =         0.00000000
  ---------------------------------------------------
  free energy    TOTEN  =      -527.08205011 eV

  energy without entropy =     -527.09279122  energy(sigma->0) =     -527.08563048


--------------------------------------------------------------------------------------------------------




--------------------------------------- Iteration      1(   8)  ---------------------------------------


    POTLOK:  cpu time    0.5247: real time    0.5282
    SETDIJ:  cpu time    0.0326: real time    0.0328
    EDDIAG:  cpu time    3.5585: real time    3.5839
  RMM-DIIS:  cpu time   11.1654: real time   11.2459
    ORTHCH:  cpu time    1.0409: real time    1.0464
       DOS:  cpu time    0.0012: real time    0.0012
    CHARGE:  cpu time    0.6178: real time    0.6212
    MIXING:  cpu time    0.0185: real time    0.0186
    --------------------------------------------
      LOOP:  cpu time   16.9596: real time   17.0782

 eigenvalue-minimisations  :  2098
 total energy-change (2. order) :-0.1678433E+03  (-0.1262066E+02)
 number of electron     756.0000022 magnetization     126.3693325
 augmentation part      356.5644820 magnetization     103.3161810

 Broyden mixing:
  rms(total) = 0.18036E+02    rms(broyden)= 0.18036E+02
  rms(prec ) = 0.23916E+02
  weight for this iteration     100.00

 eigenvalues of (default mixing * dielectric matrix)
  average eigenvalue GAMMA=   0.2774
  0.4437  0.2946  0.0938

 Free energy of the ion-electron system (eV)
  ---------------------------------------------------
  alpha Z        PSCENC =      1942.40156902
  Ewald energy   TEWEN  =    237779.37043839
  -Hartree energ DENC   =   -304012.81871346
  -exchange      EXHF   =         0.00000000
  -V(xc)+E(xc)   XCENC  =       477.13648303
  PAW double counting   =     68715.61600875   -69451.23445018
  entropy T*S    EENTRO =        -0.01221124
  eigenvalues    EBANDS =     -1025.00651193
  atomic energy  EATOM  =     64879.62206431
  Solvation  Ediel_sol  =         0.00000000
  ---------------------------------------------------
  free energy    TOTEN  =      -694.92532331 eV

  energy without entropy =     -694.91311207  energy(sigma->0) =     -694.92125290


--------------------------------------------------------------------------------------------------------




--------------------------------------- Iteration      1(   9)  ---------------------------------------


    POTLOK:  cpu time    0.5231: real time    0.5266
    SETDIJ:  cpu time    0.0321: real time    0.0323
    EDDIAG:  cpu time    3.5347: real time    3.5593
  RMM-DIIS:  cpu time   11.1592: real time   11.2330
    ORTHCH:  cpu time    1.0436: real time    1.0491
       DOS:  cpu time    0.0011: real time    0.0011
    CHARGE:  cpu time    0.6276: real time    0.6311
    MIXING:  cpu time    0.0180: real time    0.0182
    --------------------------------------------
      LOOP:  cpu time   16.9395: real time   17.0506

 eigenvalue-minimisations  :  2099
 total energy-change (2. order) : 0.6622937E+02  (-0.1242328E+02)
 number of electron     756.0000011 magnetization     123.3084908
 augmentation part      361.7841679 magnetization      99.0533066

 Broyden mixing:
  rms(total) = 0.17141E+02    rms(broyden)= 0.17141E+02
  rms(prec ) = 0.20447E+02
  weight for this iteration     100.00

 eigenvalues of (default mixing * dielectric matrix)
  average eigenvalue GAMMA=   0.2848
  0.5126  0.4108  0.1329  0.0828

 Free energy of the ion-electron system (eV)
  ---------------------------------------------------
  alpha Z        PSCENC =      1942.40156902
  Ewald energy   TEWEN  =    237779.37043839
  -Hartree energ DENC   =   -304115.45734766
  -exchange      EXHF   =         0.00000000
  -V(xc)+E(xc)   XCENC  =       479.79037507
  PAW double counting   =     70273.70500411   -71027.14232566
  entropy T*S    EENTRO =         0.02825095
  eigenvalues    EBANDS =      -841.01398566
  atomic energy  EATOM  =     64879.62206431
  Solvation  Ediel_sol  =         0.00000000
  ---------------------------------------------------
  free energy    TOTEN  =      -628.69595713 eV

  energy without entropy =     -628.72420807  energy(sigma->0) =     -628.70537411


--------------------------------------------------------------------------------------------------------




--------------------------------------- Iteration      1(  10)  ---------------------------------------


    POTLOK:  cpu time    0.5243: real time    0.5279
    SETDIJ:  cpu time    0.0330: real time    0.0332
    EDDIAG:  cpu time    3.5339: real time    3.5596
  RMM-DIIS:  cpu time   11.1522: real time   11.2347
    ORTHCH:  cpu time    1.0418: real time    1.0473
       DOS:  cpu time    0.0011: real time    0.0011
    CHARGE:  cpu time    0.6344: real time    0.6379
    MIXING:  cpu time    0.0191: real time    0.0192
    --------------------------------------------
      LOOP:  cpu time   16.9398: real time   17.0610

 eigenvalue-minimisations  :  2103
 total energy-change (2. order) : 0.1381465E+03  (-0.1228065E+02)
 number of electron     756.0000017 magnetization     120.5768318
 augmentation part      370.1898465 magnetization      92.2295208

 Broyden mixing:
  rms(total) = 0.90813E+01    rms(broyden)= 0.90809E+01
  rms(prec ) = 0.11012E+02
  weight for this iteration     100.00

 eigenvalues of (default mixing * dielectric matrix)
  average eigenvalue GAMMA=   0.3512
  0.6787  0.6787  0.1981  0.1294  0.0709

 Free energy of the ion-electron system (eV)
  ---------------------------------------------------
  alpha Z        PSCENC =      1942.40156902
  Ewald energy   TEWEN  =    237779.37043839
  -Hartree energ DENC   =   -303999.53487688
  -exchange      EXHF   =         0.00000000
  -V(xc)+E(xc)   XCENC  =       482.76498652
  PAW double counting   =     71455.14952628   -72215.31830226
  entropy T*S    EENTRO =        -0.00719911
  eigenvalues    EBANDS =      -814.99762398
  atomic energy  EATOM  =     64879.62206431
  Solvation  Ediel_sol  =         0.00000000
  ---------------------------------------------------
  free energy    TOTEN  =      -490.54941771 eV

  energy without entropy =     -490.54221860  energy(sigma->0) =     -490.54701801


--------------------------------------------------------------------------------------------------------




--------------------------------------- Iteration      1(  11)  ---------------------------------------


    POTLOK:  cpu time    0.5246: real time    0.5280
    SETDIJ:  cpu time    0.0353: real time    0.0355
    EDDIAG:  cpu time    3.5088: real time    3.5344
  RMM-DIIS:  cpu time   11.1148: real time   11.1866
    ORTHCH:  cpu time    1.0410: real time    1.0465
       DOS:  cpu time    0.0012: real time    0.0012
    CHARGE:  cpu time    0.6338: real time    0.6372
    MIXING:  cpu time    0.0184: real time    0.0185
    --------------------------------------------
      LOOP:  cpu time   16.8779: real time   16.9879

 eigenvalue-minimisations  :  2099
 total energy-change (2. order) :-0.3272072E+02  (-0.1212410E+02)
 number of electron     756.0000040 magnetization     116.9212657
 augmentation part      364.4283989 magnetization      92.9892170

 Broyden mixing:
  rms(total) = 0.14263E+02    rms(broyden)= 0.14263E+02
  rms(prec ) = 0.16298E+02
  weight for this iteration     100.00

 eigenvalues of (default mixing * dielectric matrix)
  average eigenvalue GAMMA=   0.3905
  1.1879  0.6155  0.2317  0.1195  0.1195  0.0687

 Free energy of the ion-electron system (eV)
  ---------------------------------------------------
  alpha Z        PSCENC =      1942.40156902
  Ewald energy   TEWEN  =    237779.37043839
  -Hartree energ DENC   =   -303952.20348146
  -exchange      EXHF   =         0.00000000
  -V(xc)+E(xc)   XCENC  =       490.36605560
  PAW double counting   =     72327.61824136   -73128.45611246
  entropy T*S    EENTRO =         0.00951144
  eigenvalues    EBANDS =      -861.99841952
  atomic energy  EATOM  =     64879.62206431
  Solvation  Ediel_sol  =         0.00000000
  ---------------------------------------------------
  free energy    TOTEN  =      -523.27013332 eV

  energy without entropy =     -523.27964475  energy(sigma->0) =     -523.27330380


--------------------------------------------------------------------------------------------------------




--------------------------------------- Iteration      1(  12)  ---------------------------------------


    POTLOK:  cpu time    0.5227: real time    0.5263
    SETDIJ:  cpu time    0.0348: real time    0.0350
[...]
   0.283E+02 0.379E+02 0.279E+04   -.279E+02 -.377E+02 -.279E+04   -.492E+00 -.221E+00 -.212E+01   0.560E-04 0.259E-03 -.379E-03
   -.646E+02 -.366E+02 -.138E+04   0.648E+02 0.362E+02 0.138E+04   -.997E-01 0.452E+00 0.355E+00   0.208E-03 0.174E-03 -.875E-03
   0.202E+02 0.609E+02 0.280E+04   -.203E+02 -.598E+02 -.280E+04   -.425E-02 -.957E+00 -.176E+01   -.578E-04 0.111E-04 -.445E-03
   -.103E+02 -.245E+02 -.271E+04   0.106E+02 0.239E+02 0.271E+04   -.332E+00 0.638E+00 0.981E+00   0.112E-04 0.411E-03 0.205E-03
   0.494E+02 0.176E+02 0.244E+02   -.488E+02 -.175E+02 -.247E+02   -.611E+00 -.644E-01 0.371E+00   0.177E-03 -.249E-03 -.119E-02
   0.598E+02 0.363E+02 -.141E+04   -.594E+02 -.358E+02 0.141E+04   -.458E+00 -.437E+00 0.112E+00   0.269E-03 -.371E-03 -.351E-03
   0.122E+02 0.678E+01 0.101E+02   -.118E+02 -.664E+01 -.963E+01   -.408E+00 -.141E+00 -.556E+00   0.608E-04 0.221E-03 -.143E-02
   0.385E+02 0.462E+02 0.281E+04   -.380E+02 -.463E+02 -.281E+04   -.267E+00 0.104E+00 -.171E+01   -.109E-03 -.250E-03 -.383E-03
   0.487E+02 0.184E+02 -.141E+04   -.485E+02 -.184E+02 0.140E+04   -.335E+00 -.396E-01 0.498E+00   -.621E-03 0.120E-03 -.400E-03
   0.518E+02 0.131E+02 -.226E+02   -.513E+02 -.129E+02 0.224E+02   -.599E+00 -.155E+00 0.254E+00   -.461E-04 -.101E-03 -.907E-03
   -.314E+02 -.667E+02 0.121E+04   0.309E+02 0.665E+02 -.121E+04   0.296E+00 0.182E+00 0.139E+00   -.389E-03 0.589E-03 -.849E-03
   -.380E+02 -.329E+02 0.249E+04   0.383E+02 0.325E+02 -.249E+04   -.382E-02 0.351E+00 -.229E+01   0.603E-03 -.339E-03 -.447E-03
   0.156E+02 0.267E+01 -.242E+04   -.158E+02 -.289E+01 0.242E+04   0.229E+00 0.233E+00 0.195E+01   0.853E-04 0.464E-04 0.265E-03
   0.110E+01 0.541E+01 -.124E+04   -.170E+01 -.590E+01 0.124E+04   0.597E+00 0.496E+00 0.333E+00   0.208E-03 -.728E-04 -.391E-03
   0.563E+02 -.959E+00 -.188E+01   -.558E+02 0.912E+00 0.297E+01   -.547E+00 -.882E-02 -.125E+01   0.138E-03 0.267E-03 -.128E-02
   -.270E+02 -.155E+02 -.240E+04   0.273E+02 0.159E+02 0.240E+04   -.366E+00 -.458E+00 0.175E+01   -.221E-05 -.312E-03 0.245E-03
   -.523E+01 0.586E+02 -.101E+02   0.520E+01 -.589E+02 0.102E+02   0.136E-01 0.312E+00 -.221E-01   -.357E-03 0.523E-04 -.109E-02
   -.519E+02 -.409E+02 -.476E+01   0.516E+02 0.409E+02 0.544E+01   0.267E+00 0.250E-01 -.747E+00   -.135E-03 -.167E-03 -.114E-02
   -.534E+02 -.505E+02 0.119E+04   0.531E+02 0.504E+02 -.120E+04   0.343E+00 0.176E+00 0.285E+00   0.382E-03 0.454E-03 -.704E-03
   -.317E+02 -.389E+02 -.123E+04   0.313E+02 0.390E+02 0.123E+04   0.391E+00 -.770E-01 0.519E+00   0.400E-04 -.279E-03 -.433E-03
   -.138E+01 -.437E+02 0.121E+04   0.183E+01 0.433E+02 -.121E+04   0.162E+00 0.516E+00 -.590E+00   0.598E-03 0.165E-04 -.818E-03
   -.149E+02 -.799E+02 0.248E+04   0.147E+02 0.798E+02 -.248E+04   0.252E+00 0.274E+00 -.268E+01   -.279E-03 0.328E-03 -.170E-03
 -----------------------------------------------------------------------------------------------
   0.437E+00 0.140E+01 -.695E+01   0.334E-12 0.284E-12 0.364E-11   -.447E+00 -.140E+01 0.699E+01   -.381E-03 -.136E-03 -.473E-01
 
 
 POSITION                                       TOTAL-FORCE (eV/Angst)
 -----------------------------------------------------------------------------------
      5.42735     -1.90127      2.17821        -0.446325     -0.408053     -0.947314
      3.88332      3.40276      4.27626         0.666123     -0.686497     -0.363808
      1.73916      7.02774     10.78867        -0.006846      0.012384     -0.000368
      1.69875      2.01728     10.81299         0.008318      0.016932     -0.000628
      8.38847     -4.39436     10.78269        -0.021737     -0.003933     -0.004979
      1.78038      7.18567      4.25531        -0.407110      0.198935     -0.705497
      1.71652     -0.61458     10.79831        -0.006406     -0.016699     -0.000107
      7.71616      4.64713      8.48797        -0.020281      0.012976      0.005416
      3.14600      4.63473      8.66132        -0.003638     -0.009978     -0.030002
      8.43840      0.78522      4.28934        -0.044119      0.151385      0.202950
      3.96427      3.29637     10.84904        -0.021911     -0.013862      0.007316
      5.40728      3.21106      8.43343        -0.007592      0.014641     -0.007408
      6.23412      4.61115      4.19640         0.274261      0.259301      0.906584
      5.43374      6.01668      8.48773         0.011300      0.007780     -0.021159
      6.17202      4.60818     10.83108         0.025815      0.001850      0.001912
      2.47902      5.91804      6.46109         0.005329     -0.035378      0.006070
      2.60903      8.56577      6.42659        -0.020949      0.037273      0.017918
      2.45136      3.25379      6.46280         0.003432      0.027415      0.006767
      8.39542     -1.88002      4.17109        -0.146417      0.002358      0.142983
      3.91149      0.66687      4.18441         0.018759     -0.100684      0.981725
      0.20660      9.72809      6.30863        -0.001118      0.000891     -0.000250
      3.12166      1.97323      2.03914         0.265907      0.235900     -1.088850
      1.01008      8.40269      8.54633         0.003060      0.005014     -0.005816
      8.42148      3.21113     10.89354        -0.000526      0.023297      0.018734
      1.62623      1.97362      4.20312        -0.016413     -0.515595      0.363556
      4.03072      0.67933     10.74246         0.009859      0.005140     -0.007420
      7.68552      2.06091      2.08560        -0.138859     -0.093507     -0.655740
      0.08298      1.99583      6.41253        -0.019017     -0.009164     -0.006959
      4.03523     -1.93763     10.80249        -0.010676     -0.002434     -0.005558
      8.35348     -1.73962     10.89377         0.005304     -0.023069     -0.005534
      7.67146      1.88529      8.50372         0.025720      0.003867      0.001585
      6.18409     -0.57116      4.28243        -0.419844     -0.005612      0.680276
      0.82615      3.28736      8.60585         0.000688      0.006401      0.006119
      1.67740      4.61509      4.29147        -0.095223     -0.174263     -0.391990
      0.98156      8.43988      2.09072         0.128610      0.239472      0.367973
      0.84773      0.61569      2.14137        -0.174831      0.033433      0.068740
      0.93663      5.84105      2.14469         0.387483     -0.283947      0.121082
      5.42297      3.33895      2.11545        -0.289184     -0.152946      0.056868
      6.18845     -3.13074     10.64752        -0.005197     -0.001452      0.005149
      3.98865      5.92798      4.22048         0.241165      0.321180      0.089954
      5.41852      5.82360      2.14243         0.015736      0.276574     -0.001915
      8.48965      3.39085      4.18671        -0.042648     -0.157755      0.092251
      7.59685     -3.07740      8.51126         0.000490      0.011428      0.000730
      3.08134     -0.68907      2.12635         0.032314     -0.033104      0.162440
      7.71044      4.63703      2.10449        -0.004901      0.241484      0.064692
      6.17748      2.02781      4.25891        -0.180323      0.137809      0.195917
      3.18465      1.91370      8.52667        -0.001294      0.009156      0.002808
      6.91249      3.27493      6.32137        -0.004312      0.008888      0.018426
      0.14650      7.13227      6.40786         0.000324      0.003936      0.016089
      3.12258      4.60222      2.15304        -0.183141      0.247808      0.330498
      1.67143      4.58541     10.75555        -0.011274     -0.008150     -0.015270
      4.74628      1.88559      6.37941         0.002894     -0.000111     -0.004663
      6.15551     -3.15903      4.28298        -0.219984     -0.268089      0.302838
      3.21420     -0.53829      8.54653        -0.012413      0.003086     -0.015543
      0.02240      4.64201      6.48944         0.000834      0.003568     -0.015705
      6.87129      5.94920      6.36021        -0.010302      0.004463      0.013880
      5.36465     -1.76611      8.50803         0.003614     -0.009279     -0.000510
      3.96333      5.85737     10.71894        -0.016825      0.019989      0.013851
      5.48090      0.73777      2.12298        -0.037036      0.020632     -0.060178
      5.33751      0.64289      8.49514         0.015407      0.005974     -0.007432
      0.91985      3.38960      2.08070        -0.158434      0.236399      0.182755
      6.25395      1.87282     10.64909         0.001196     -0.008705     -0.001459
      4.79932      7.24962      6.37910         0.009205     -0.006734     -0.002065
      3.27452      7.25728      8.62885         0.010021      0.005325     -0.009994
      4.74965     -0.52104      6.49483        -0.002379      0.005124      0.000663
      7.71795     -0.54253      2.06063         0.284339     -0.066034      0.135774
      1.01022      0.69322      8.59705         0.003876      0.000093     -0.014143
      4.78422      4.62816      6.35921         0.009137      0.003718      0.001510
      8.37519     -4.45618      4.19383        -0.141248     -0.041921     -0.232166
      3.17250      7.08422      2.15324         0.226918     -0.074395     -0.287065
      8.45971      0.71256     10.70915         0.004203      0.012606     -0.006522
      0.91437      5.83957      8.55994        -0.011248      0.002903     -0.011570
      2.49827      0.73644      6.53866        -0.014383     -0.037597      0.008549
      6.19603     -0.54858     10.55453        -0.014201     -0.000028     -0.006492
      6.91915      0.78785      6.35871        -0.014360     -0.009250      0.009583
      6.81562     -1.88595      6.45700        -0.003518      0.007367      0.009521
      1.64550     -0.62253      4.14460         0.046137      0.154679     -0.340969
      7.59804     -0.63948      8.54352         0.000426     -0.000951     -0.012833
      3.93743     -1.89914      4.26870         0.584635      0.015120     -0.152243
      7.62488     -3.24690      2.10849         0.075606      0.203220     -0.174325
 -----------------------------------------------------------------------------------
    total drift:                               -0.009553      0.004558     -0.002481


--------------------------------------------------------------------------------------------------------



  FREE ENERGIE OF THE ION-ELECTRON SYSTEM (eV)
  ---------------------------------------------------
  free  energy   TOTEN  =      -532.71384259 eV

  energy  without entropy=     -532.75136409  energy(sigma->0) =     -532.72634975
 
 d Force = 0.1172034E-02[-0.546E-03, 0.289E-02]  d Energy = 0.1175077E-02-0.304E-05
 d Force =-0.1813232E+03[-0.181E+03,-0.181E+03]  d Ewald  =-0.1813232E+03-0.137E-05


--------------------------------------------------------------------------------------------------------


    POTLOK:  cpu time    0.5660: real time    0.5696


--------------------------------------------------------------------------------------------------------


 Conjugate gradient step on ions:
 trial-energy change:   -0.001175  1 .order   -0.001172   -0.002890    0.000546
  (g-gl).g = 0.161E-02      g.g   = 0.164E-02  gl.gl    = 0.263E-02
 g(Force)  = 0.164E-02   g(Stress)= 0.000E+00 ortho     = 0.188E-04
 gamma     =   0.61125
 trial     =   1.74797
 opt step  =   1.47028  (harmonic =   1.47028) maximal distance =0.00328805
 next E    =  -532.713883   (d E  =  -0.00122)


--------------------------------------------------------------------------------------------------------


  
 reached required accuracy - stopping structural energy minimisation
     LOOP+:  cpu time  554.6689: real time  559.0166
    4ORBIT:  cpu time    0.0000: real time    0.0000
 


 total charge     
 
# of ion       s       p       d       tot
------------------------------------------
    1        0.748   0.478   8.095   9.320
    2        0.726   0.638   8.118   9.482
    3        0.762   0.496   8.085   9.343
    4        0.741   0.483   8.088   9.311
    5        0.730   0.470   8.090   9.290
    6        0.745   0.693   8.102   9.540
    7        0.721   0.461   8.101   9.284
    8        0.681   0.578   8.124   9.383
    9        0.721   0.676   8.113   9.511
   10        0.731   0.639   8.128   9.499
   11        0.729   0.486   8.096   9.311
   12        0.702   0.609   8.125   9.437
   13        0.748   0.679   8.093   9.520
   14        0.732   0.660   8.104   9.496
   15        0.722   0.470   8.083   9.275
   16        0.720   0.635   8.112   9.467
   17        0.759   0.679   8.111   9.549
   18        0.725   0.638   8.098   9.461
   19        0.567   0.602   8.547   9.716
   20        0.550   0.573   8.542   9.666
   21        0.562   0.588   8.538   9.688
   22        0.512   0.389   8.540   9.441
   23        0.533   0.575   8.560   9.667
   24        0.528   0.426   8.532   9.487
   25        0.559   0.595   8.544   9.698
   26        0.567   0.478   8.524   9.569
   27        0.533   0.411   8.538   9.482
   28        0.561   0.580   8.552   9.693
   29        0.560   0.439   8.532   9.530
   30        0.560   0.447   8.524   9.531
   31        0.568   0.605   8.546   9.719
   32        0.579   0.630   8.557   9.766
   33        0.552   0.602   8.551   9.705
   34        0.450   0.446   8.361   9.257
   35        0.469   0.338   8.333   9.141
   36        0.483   0.341   8.331   9.156
   37        0.474   0.362   8.333   9.169
   38        0.456   0.326   8.333   9.115
   39        0.478   0.366   8.358   9.202
   40        0.473   0.475   8.360   9.308
   41        0.466   0.358   8.337   9.161
   42        0.464   0.454   8.357   9.275
   43        0.470   0.455   8.358   9.282
   44        0.474   0.326   8.348   9.147
   45        0.479   0.351   8.343   9.173
   46        0.456   0.442   8.349   9.247
   47        0.463   0.457   8.359   9.280
   48        0.465   0.446   8.343   9.254
   49        0.465   0.440   8.374   9.278
   50        0.444   0.336   7.215   7.996
   51        0.458   0.383   7.256   8.096
   52        0.453   0.453   7.266   8.172
   53        0.452   0.466   7.271   8.189
   54        0.452   0.463   7.274   8.189
   55        0.439   0.415   7.276   8.130
   56        0.459   0.462   7.282   8.204
   57        0.467   0.479   7.282   8.228
   58        0.453   0.386   7.252   8.091
   59        0.429   0.308   7.205   7.942
   60        0.469   0.481   7.273   8.224
   61        0.437   0.316   7.208   7.961
   62        0.452   0.351   7.252   8.056
   63        0.466   0.477   7.295   8.237
   64        0.436   0.453   7.266   8.155
   65        0.477   0.487   7.284   8.248
   66        0.430   0.326   7.220   7.977
   67        0.421   0.413   7.231   8.065
   68        0.434   0.468   6.184   7.086
   69        0.464   0.482   6.193   7.139
   70        0.446   0.372   6.129   6.946
   71        0.475   0.394   6.173   7.042
   72        0.449   0.472   6.184   7.105
   73        0.461   0.462   6.185   7.107
   74        0.490   0.400   6.194   7.084
   75        0.468   0.487   6.193   7.149
   76        0.466   0.473   6.204   7.144
   77        0.449   0.474   6.179   7.102
   78        0.461   0.480   6.212   7.152
   79        0.457   0.488   6.206   7.151
   80        0.446   0.349   6.129   6.924
--------------------------------------------------
tot         42.980  38.049 618.544 699.573
 


 magnetization (x)
 
# of ion       s       p       d       tot
------------------------------------------
    1       -0.029  -0.042   0.352   0.281
    2       -0.019  -0.040   0.340   0.282
    3       -0.016  -0.022   0.264   0.226
    4       -0.003  -0.012   0.142   0.127
    5       -0.009  -0.009   0.089   0.071
    6       -0.022  -0.051   0.405   0.332
    7       -0.004  -0.004   0.214   0.205
    8       -0.019  -0.024   0.305   0.263
    9       -0.019  -0.043   0.403   0.341
   10       -0.021  -0.041   0.321   0.258
   11       -0.013  -0.020   0.111   0.078
   12       -0.026  -0.036   0.376   0.314
   13       -0.020  -0.056   0.411   0.335
   14       -0.021  -0.044   0.433   0.369
   15       -0.009  -0.013   0.100   0.077
   16       -0.018  -0.046   0.318   0.254
   17       -0.022  -0.055   0.353   0.276
   18       -0.014  -0.043   0.324   0.267
   19       -0.028  -0.055   0.387   0.304
   20       -0.028  -0.048   0.385   0.310
   21       -0.024  -0.045   0.293   0.224
   22       -0.022  -0.025   0.241   0.194
   23       -0.017  -0.031   0.288   0.239
   24       -0.011  -0.008   0.128   0.109
   25       -0.019  -0.041   0.322   0.262
   26       -0.011  -0.017   0.195   0.167
   27       -0.024  -0.029   0.260   0.208
   28       -0.022  -0.044   0.278   0.211
   29       -0.014  -0.014   0.156   0.128
   30       -0.020  -0.023   0.219   0.176
   31       -0.028  -0.049   0.350   0.273
   32       -0.024  -0.051   0.335   0.260
   33       -0.021  -0.041   0.323   0.261
   34       -0.014  -0.025   0.653   0.614
   35       -0.014  -0.023   0.730   0.694
   36       -0.017  -0.024   0.748   0.707
   37       -0.020  -0.029   0.701   0.652
   38       -0.010  -0.018   0.700   0.672
   39       -0.010  -0.011   0.351   0.331
   40       -0.021  -0.042   0.756   0.693
   41       -0.015  -0.029   0.707   0.663
   42       -0.016  -0.030   0.717   0.672
   43       -0.015  -0.030   0.716   0.671
   44       -0.022  -0.021   0.713   0.670
   45       -0.018  -0.025   0.672   0.628
   46       -0.016  -0.031   0.687   0.640
   47       -0.017  -0.028   0.741   0.696
   48       -0.014  -0.033   0.699   0.653
   49       -0.016  -0.027   0.542   0.499
   50        0.001  -0.015   1.891   1.877
   51        0.005  -0.005   1.672   1.671
   52       -0.010  -0.032   1.782   1.740
   53       -0.013  -0.037   1.802   1.752
   54       -0.011  -0.030   1.814   1.773
   55       -0.012  -0.028   1.722   1.683
   56       -0.009  -0.029   1.712   1.674
   57       -0.019  -0.043   1.786   1.724
   58        0.009  -0.003   1.660   1.666
   59        0.007  -0.007   1.932   1.932
   60       -0.014  -0.042   1.803   1.747
   61        0.000  -0.015   1.926   1.911
   62        0.001  -0.008   1.634   1.626
   63       -0.014  -0.043   1.707   1.650
   64       -0.004  -0.016   1.802   1.782
   65       -0.015  -0.047   1.737   1.674
   66        0.002  -0.016   1.866   1.853
   67       -0.005  -0.014   1.917   1.899
   68        0.007  -0.007   2.782   2.782
   69        0.004  -0.019   2.796   2.781
   70        0.016  -0.005   2.911   2.922
   71        0.013  -0.008   2.673   2.677
   72        0.002  -0.015   2.880   2.866
   73        0.008  -0.018   2.823   2.814
   74        0.009  -0.007   2.616   2.618
   75        0.001  -0.027   2.772   2.747
   76       -0.003  -0.034   2.749   2.711
   77        0.003  -0.012   2.859   2.850
   78       -0.007  -0.037   2.776   2.732
   79        0.004  -0.019   2.782   2.767
   80        0.011  -0.007   2.940   2.944
--------------------------------------------------
tot         -0.903  -2.189  88.777  85.685
 

 total amount of memory used by VASP MPI-rank0   133057. kBytes
=======================================================================

   base      :      30000. kBytes
   nonlr-proj:      21687. kBytes
   fftplans  :      13111. kBytes
   grid      :      38873. kBytes
   one-center:        311. kBytes
   wavefun   :      29075. kBytes
 
  
  
 General timing and accounting informations for this job:
 ========================================================
  
                  Total CPU time used (sec):    14331.643
                            User time (sec):    14318.830
                          System time (sec):       12.813
                         Elapsed time (sec):    14449.001
  
                   Maximum memory used (kb):      731180.
                   Average memory used (kb):           0.
  
                          Minor page faults:      3298993
                          Major page faults:            0
                 Voluntary context switches:         3688
