ML                                      
           1
     8.984596   -5.124200    0.003063
     0.040823   10.325114    0.024972
     0.049208    0.015529   22.918768
   Pt   Pd   Ni   Co   Fe
  18  15  16  18  13
Direct configuration=     1
   0.60303100  0.11499200  0.09483464
   0.42873904  0.54205846  0.18593522
   0.17878979  0.78500102  0.46886330
   0.19050437  0.28253775  0.47036299
   0.94226922  0.03399520  0.47494514
   0.19355017  0.79171909  0.18478051
   0.18718586  0.03324283  0.47382523
   0.84894446  0.86165133  0.37764155
   0.35351224  0.61178336  0.37092108
   0.93573254  0.54015903  0.18644032
   0.43286602  0.52782486  0.46643508
   0.59613216  0.62148685  0.37356594
   0.68928725  0.78840431  0.18214769
   0.58580332  0.85601749  0.37762335
   0.68378365  0.77518904  0.47277565
   0.27438088  0.69041378  0.27864243
   0.26555138  0.94702380  0.28229709
   0.26274649  0.45893765  0.28255067
   0.93215623  0.28025962  0.18156466
   0.43308841  0.27924842  0.18221344
   0.02132760  0.94696259  0.27787999
   0.34531422  0.36235118  0.08853161
   0.10026193  0.85875632  0.38069215
   0.95141714  0.79103055  0.47078228
   0.17872926  0.27957320  0.18306336
   0.42579388  0.28041360  0.47067515
   0.85208885  0.62234539  0.09020749
   0.01871402  0.21096165  0.28147273
   0.42727958  0.02890437  0.47046665
   0.93582382  0.28672244  0.47194240
   0.85550908  0.62285499  0.37813697
   0.68598379  0.28484601  0.18645066
   0.11243072  0.37662767  0.37530269
   0.18323281  0.53763236  0.18663650
   0.10480489  0.86928962  0.09026199
   0.09336141  0.10582362  0.09330515
   0.10094173  0.61566885  0.09289357
   0.60026154  0.62114411  0.09154494
   0.68777170  0.03868910  0.47014872
   0.43934145  0.79189565  0.18322776
   0.59867171  0.86099557  0.09246123
   0.94030541  0.79479403  0.18168425
   0.84983784  0.12389678  0.37605766
   0.34198391  0.10284503  0.09261991
   0.85372275  0.87265510  0.09075901
   0.68411550  0.53563381  0.18515124
   0.34522003  0.37402211  0.37597851
   0.76724144  0.69034917  0.28112507
   0.02866043  0.69494912  0.28645267
   0.34423714  0.61643044  0.09322447
   0.18432456  0.53110370  0.46771995
   0.51229858  0.45187523  0.28180023
   0.68394471  0.03319433  0.18674887
   0.35014530  0.10888062  0.37643623
   0.01914139  0.45059762  0.28061369
   0.75961710  0.95014928  0.27971859
   0.59982262  0.11020865  0.37465996
   0.43039626  0.78187530  0.46760964
   0.60783360  0.37297395  0.09214300
   0.60024627  0.37290124  0.37821894
   0.10016938  0.37786397  0.09036060
   0.68482126  0.52874815  0.46855385
   0.50514841  0.93997483  0.28156422
   0.33748585  0.84964494  0.37654899
   0.52211884  0.19874913  0.28118541
   0.85683774  0.37255621  0.08938991
   0.10602065  0.12144858  0.37932532
   0.51057982  0.69794928  0.28337509
   0.93103395  0.03019697  0.18282944
   0.34869190  0.85902618  0.09296816
   0.93307524  0.53702250  0.47184795
   0.11593740  0.62705460  0.37691689
   0.26823676  0.19994213  0.28037712
   0.68339768  0.28780866  0.47192504
   0.77448659  0.44527598  0.27990924
   0.76824092  0.20599846  0.28098117
   0.18202101  0.02976936  0.18078205
   0.85869398  0.37945760  0.37424123
   0.43707433  0.03269925  0.18615941
   0.84767677  0.10608478  0.09176970
Direct configuration=     2
   0.60303100  0.11499200  0.09483464
   0.42873904  0.54205846  0.18593522
   0.19214706  0.76858033  0.47452786
   0.18114306  0.28517827  0.47244482
   0.93243799  0.03610950  0.47511009
   0.19355017  0.79171909  0.18478051
   0.19055694  0.03978252  0.47520970
   0.85302262  0.87896758  0.37255180
   0.34367100  0.62058600  0.37781384
   0.93573254  0.54015903  0.18644032
   0.43434861  0.53397838  0.47193314
   0.60708098  0.60332100  0.36953373
   0.68928725  0.78840431  0.18214769
   0.59859994  0.88449801  0.37528730
   0.68354099  0.78010460  0.47689197
   0.26874920  0.71554497  0.27698470
   0.27685667  0.95666658  0.28263987
   0.26663916  0.43072374  0.27625605
   0.93215623  0.28025962  0.18156466
   0.43308841  0.27924842  0.18221344
   0.01332133  0.94766663  0.27807100
   0.34531422  0.36235118  0.08853161
   0.10766065  0.87131174  0.37125634
   0.92682248  0.77587993  0.47760171
   0.17872926  0.27957320  0.18306336
   0.44240242  0.28275002  0.47079808
   0.85208885  0.62234539  0.09020749
   0.01147258  0.19904618  0.28161195
   0.44134519  0.03267741  0.47084799
   0.93218741  0.28909068  0.47254147
   0.84915122  0.60499461  0.37566228
   0.68598379  0.28484601  0.18645066
   0.09253920  0.36572466  0.37703064
   0.18323281  0.53763236  0.18663650
   0.10480489  0.86928962  0.09026199
   0.09336141  0.10582362  0.09330515
   0.10094173  0.61566885  0.09289357
   0.60026154  0.62114411  0.09154494
   0.68579465  0.03711354  0.46940547
   0.43934145  0.79189565  0.18322776
   0.59867171  0.86099557  0.09246123
   0.94030541  0.79479403  0.18168425
   0.84785607  0.12253878  0.37499985
   0.34198391  0.10284503  0.09261991
   0.85372275  0.87265510  0.09075901
   0.68411550  0.53563381  0.18515124
   0.34976171  0.36174646  0.37270398
   0.76552085  0.69044423  0.27983470
   0.02165803  0.69093890  0.28511520
   0.34423714  0.61643044  0.09322447
   0.18334406  0.53585942  0.46831283
   0.51564358  0.44911423  0.28198902
   0.68394471  0.03319433  0.18674887
   0.35271242  0.11279582  0.37486114
   0.01202476  0.45202663  0.28121859
   0.75784709  0.95072212  0.27963623
   0.59912293  0.11374082  0.37422930
   0.42762581  0.77974013  0.46843007
   0.60783360  0.37297395  0.09214300
   0.59998682  0.36822030  0.37706798
   0.10016938  0.37786397  0.09036060
   0.68652165  0.52466741  0.46879547
   0.51416627  0.94663159  0.28183936
   0.34542438  0.85821485  0.37598769
   0.52134368  0.19861292  0.28259717
   0.85683774  0.37255621  0.08938991
   0.10775554  0.12135135  0.37751493
   0.52530455  0.70416642  0.27921649
   0.93103395  0.03019697  0.18282944
   0.34869190  0.85902618  0.09296816
   0.93451915  0.53589906  0.47149011
   0.10870386  0.61990530  0.37670865
   0.27256881  0.20235226  0.28228535
   0.68256095  0.28761697  0.46986095
   0.77169787  0.44804433  0.28056550
   0.76485220  0.20056046  0.28261042
   0.18202101  0.02976936  0.18078205
   0.85525859  0.37439155  0.37447623
   0.43707433  0.03269925  0.18615941
   0.84767677  0.10608478  0.09176970
Direct configuration=     3
   0.60303100  0.11499200  0.09483464
   0.42873904  0.54205846  0.18593522
   0.18854216  0.77301199  0.47299909
   0.18366952  0.28446564  0.47188297
   0.93509127  0.03553889  0.47506557
   0.19355017  0.79171909  0.18478051
   0.18964714  0.03801757  0.47483606
   0.85192199  0.87429422  0.37392544
   0.34632698  0.61821032  0.37595360
   0.93573254  0.54015903  0.18644032
   0.43394848  0.53231765  0.47044930
   0.60412608  0.60822365  0.37062195
   0.68928725  0.78840431  0.18214769
   0.59514635  0.87681161  0.37591776
   0.68360648  0.77877798  0.47578105
   0.27026909  0.70876250  0.27743210
   0.27380557  0.95406416  0.28254736
   0.26558859  0.43833819  0.27795486
   0.93215623  0.28025962  0.18156466
   0.43308841  0.27924842  0.18221344
   0.01548208  0.94747662  0.27801945
   0.34531422  0.36235118  0.08853161
   0.10566386  0.86792325  0.37380290
   0.93346016  0.77996883  0.47576127
   0.17872926  0.27957320  0.18306336
   0.43792006  0.28211946  0.47076490
   0.85208885  0.62234539  0.09020749
   0.01342692  0.20226196  0.28157438
   0.43754912  0.03165913  0.47074507
   0.93316881  0.28845154  0.47237979
   0.85086710  0.60981482  0.37633016
   0.68598379  0.28484601  0.18645066
   0.09790758  0.36866720  0.37656430
   0.18323281  0.53763236  0.18663650
   0.10480489  0.86928962  0.09026199
   0.09336141  0.10582362  0.09330515
   0.10094173  0.61566885  0.09289357
   0.60026154  0.62114411  0.09154494
   0.68632822  0.03753875  0.46960606
   0.43934145  0.79189565  0.18322776
   0.59867171  0.86099557  0.09246123
   0.94030541  0.79479403  0.18168425
   0.84839092  0.12290528  0.37528533
   0.34198391  0.10284503  0.09261991
   0.85372275  0.87265510  0.09075901
   0.68411550  0.53563381  0.18515124
   0.34853599  0.36505944  0.37358772
   0.76598521  0.69041858  0.28018295
   0.02354786  0.69202119  0.28547616
   0.34423714  0.61643044  0.09322447
   0.18360868  0.53457594  0.46815282
   0.51474083  0.44985938  0.28193807
   0.68394471  0.03319433  0.18674887
   0.35201960  0.11173917  0.37528623
   0.01394542  0.45164096  0.28105534
   0.75832479  0.95056752  0.27965846
   0.59931176  0.11278755  0.37434553
   0.42837351  0.78031637  0.46820865
   0.60783360  0.37297395  0.09214300
   0.60005684  0.36948361  0.37737861
   0.10016938  0.37786397  0.09036060
   0.68606275  0.52576873  0.46873026
   0.51173250  0.94483505  0.28176510
   0.34328191  0.85590198  0.37613918
   0.52155289  0.19864968  0.28221616
   0.85683774  0.37255621  0.08938991
   0.10728732  0.12137759  0.37800352
   0.52133060  0.70248852  0.28033883
   0.93103395  0.03019697  0.18282944
   0.34869190  0.85902618  0.09296816
   0.93412947  0.53620225  0.47158669
   0.11065607  0.62183477  0.37676485
   0.27139966  0.20170181  0.28177035
   0.68278677  0.28766870  0.47041801
   0.77245050  0.44729720  0.28038839
   0.76576676  0.20202808  0.28217071
   0.18202101  0.02976936  0.18078205
   0.85618574  0.37575879  0.37441281
   0.43707433  0.03269925  0.18615941
   0.84767677  0.10608478  0.09176970
Direct configuration=     4
   0.60303100  0.11499200  0.09483464
   0.42873904  0.54205846  0.18593522
   0.18659587  0.77149197  0.47403012
   0.18473450  0.28774762  0.47283392
   0.93012672  0.03496373  0.47499657
   0.19355017  0.79171909  0.18478051
   0.18770810  0.03352268  0.47466777
   0.85239894  0.87779429  0.37242026
   0.34814866  0.61873809  0.37567965
   0.93573254  0.54015903  0.18644032
   0.43533318  0.53463525  0.47242721
   0.60069465  0.60780053  0.36984745
   0.68928725  0.78840431  0.18214769
   0.60017652  0.88064750  0.37452707
   0.68027387  0.78118859  0.47633535
   0.27093403  0.70076296  0.27923015
   0.28036984  0.96638165  0.28139788
   0.26917378  0.44328036  0.27956222
   0.93215623  0.28025962  0.18156466
   0.43308841  0.27924842  0.18221344
   0.01283182  0.94771720  0.27681610
   0.34531422  0.36235118  0.08853161
   0.10539422  0.86895977  0.37426739
   0.93204053  0.77518649  0.47737233
   0.17872926  0.27957320  0.18306336
   0.44361395  0.28490874  0.47079793
   0.85208885  0.62234539  0.09020749
   0.00659892  0.19411593  0.28146681
   0.44395518  0.03262029  0.47101067
   0.92832736  0.29081032  0.47338565
   0.85384453  0.60703154  0.37515160
   0.68598379  0.28484601  0.18645066
   0.09201843  0.36541807  0.37562650
   0.18323281  0.53763236  0.18663650
   0.10480489  0.86928962  0.09026199
   0.09336141  0.10582362  0.09330515
   0.10094173  0.61566885  0.09289357
   0.60026154  0.62114411  0.09154494
   0.68526836  0.03676095  0.46930819
   0.43934145  0.79189565  0.18322776
   0.59867171  0.86099557  0.09246123
   0.94030541  0.79479403  0.18168425
   0.84661971  0.12309881  0.37435222
   0.34198391  0.10284503  0.09261991
   0.85372275  0.87265510  0.09075901
   0.68411550  0.53563381  0.18515124
   0.34999987  0.35942749  0.37207220
   0.76553429  0.69127062  0.27877682
   0.01647660  0.69011226  0.28411416
   0.34423714  0.61643044  0.09322447
   0.18206752  0.53452624  0.46888693
   0.51876655  0.44648026  0.28160067
   0.68394471  0.03319433  0.18674887
   0.35454540  0.11573890  0.37449169
   0.01029677  0.45160737  0.28160809
   0.75651382  0.95077953  0.27939654
   0.59926523  0.11948540  0.37383152
   0.43064754  0.77941815  0.46854205
   0.60783360  0.37297395  0.09214300
   0.59910264  0.36172728  0.37633035
   0.10016938  0.37786397  0.09036060
   0.68722161  0.52362996  0.46899504
   0.51991980  0.95152558  0.28159209
   0.34778134  0.86434341  0.37618593
   0.52191771  0.20014839  0.28332850
   0.85683774  0.37255621  0.08938991
   0.10933368  0.12212948  0.37732978
   0.52627550  0.70494748  0.27904746
   0.93103395  0.03019697  0.18282944
   0.34869190  0.85902618  0.09296816
   0.93535566  0.53506090  0.47136670
   0.10509574  0.61894939  0.37650737
   0.27420860  0.20104092  0.28349249
   0.68351319  0.28772710  0.46846522
   0.77051619  0.44924201  0.28032920
   0.76266374  0.19765354  0.28346599
   0.18202101  0.02976936  0.18078205
   0.85186268  0.36902971  0.37452168
   0.43707433  0.03269925  0.18615941
   0.84767677  0.10608478  0.09176970
Direct configuration=     5
   0.60303100  0.11499200  0.09483464
   0.42873904  0.54205846  0.18593522
   0.18594961  0.77098726  0.47437246
   0.18508811  0.28883737  0.47314968
   0.92847828  0.03477275  0.47497367
   0.19355017  0.79171909  0.18478051
   0.18706425  0.03203019  0.47461189
   0.85255731  0.87895646  0.37192048
   0.34875353  0.61891333  0.37558868
   0.93573254  0.54015903  0.18644032
   0.43579296  0.53540479  0.47308396
   0.59955527  0.60766004  0.36959028
   0.68928725  0.78840431  0.18214769
   0.60184675  0.88192117  0.37406531
   0.67916731  0.78198901  0.47651940
   0.27115482  0.69810678  0.27982718
   0.28254945  0.97047158  0.28101621
   0.27036422  0.44492137  0.28009593
   0.93215623  0.28025962  0.18156466
   0.43308841  0.27924842  0.18221344
   0.01195182  0.94779708  0.27641654
   0.34531422  0.36235118  0.08853161
   0.10530469  0.86930394  0.37442162
   0.93156915  0.77359856  0.47790727
   0.17872926  0.27957320  0.18306336
   0.44550456  0.28583490  0.47080890
   0.85208885  0.62234539  0.09020749
   0.00433174  0.19141110  0.28143109
   0.44608226  0.03293943  0.47109886
   0.92671980  0.29159353  0.47371964
   0.85483316  0.60610737  0.37476027
   0.68598379  0.28484601  0.18645066
   0.09006299  0.36433923  0.37531512
   0.18323281  0.53763236  0.18663650
   0.10480489  0.86928962  0.09026199
   0.09336141  0.10582362  0.09330515
   0.10094173  0.61566885  0.09289357
   0.60026154  0.62114411  0.09154494
   0.68491644  0.03650269  0.46920929
   0.43934145  0.79189565  0.18322776
   0.59867171  0.86099557  0.09246123
   0.94030541  0.79479403  0.18168425
   0.84603159  0.12316306  0.37404238
   0.34198391  0.10284503  0.09261991
   0.85372275  0.87265510  0.09075901
   0.68411550  0.53563381  0.18515124
   0.35048594  0.35755744  0.37156899
   0.76538457  0.69155353  0.27830992
   0.01412865  0.68947842  0.28366192
   0.34423714  0.61643044  0.09322447
   0.18155579  0.53450974  0.46913068
   0.52010326  0.44535825  0.28148863
   0.68394471  0.03319433  0.18674887
   0.35538407  0.11706698  0.37422787
   0.00908527  0.45159621  0.28179162
   0.75591250  0.95084993  0.27930957
   0.59924977  0.12170936  0.37366085
   0.43140262  0.77911990  0.46865275
   0.60783360  0.37297395  0.09214300
   0.59878580  0.35915185  0.37598229
   0.10016938  0.37786397  0.09036060
   0.68760640  0.52291980  0.46908296
   0.52263832  0.95374712  0.28153464
   0.34927534  0.86714632  0.37620145
   0.52203885  0.20064603  0.28369785
   0.85683774  0.37255621  0.08938991
   0.11001316  0.12237914  0.37710607
   0.52791741  0.70576395  0.27861867
   0.93103395  0.03019697  0.18282944
   0.34869190  0.85902618  0.09296816
   0.93576281  0.53468192  0.47129366
   0.10324948  0.61799132  0.37642188
   0.27514128  0.20082148  0.28406432
   0.68375440  0.28774649  0.46781681
   0.76987391  0.44988778  0.28030955
   0.76163341  0.19620101  0.28389608
   0.18202101  0.02976936  0.18078205
   0.85042724  0.36679537  0.37455783
   0.43707433  0.03269925  0.18615941
   0.84767677  0.10608478  0.09176970
Direct configuration=     6
   0.60303100  0.11499200  0.09483464
   0.42873904  0.54205846  0.18593522
   0.18553465  0.77213504  0.47414248
   0.18510195  0.28774264  0.47309324
   0.92858752  0.03553086  0.47459678
   0.19355017  0.79171909  0.18478051
   0.18750699  0.03252897  0.47424606
   0.85347963  0.87711624  0.37198994
   0.34913786  0.61842163  0.37660210
   0.93573254  0.54015903  0.18644032
   0.43538849  0.53500047  0.47375651
   0.60028486  0.60812006  0.36984284
   0.68928725  0.78840431  0.18214769
   0.60056748  0.88133577  0.37333775
   0.67904609  0.78338568  0.47618251
   0.27139744  0.70183887  0.28046511
   0.28240278  0.96673509  0.27994135
   0.26952412  0.44364202  0.28147549
   0.93215623  0.28025962  0.18156466
   0.43308841  0.27924842  0.18221344
   0.01260915  0.94608935  0.27525544
   0.34531422  0.36235118  0.08853161
   0.10558531  0.86887350  0.37471433
   0.93025584  0.77189685  0.47827822
   0.17872926  0.27957320  0.18306336
   0.44409922  0.28537106  0.47084489
   0.85208885  0.62234539  0.09020749
   0.00399417  0.19169562  0.28081500
   0.44653193  0.03224185  0.47141103
   0.92477275  0.29191493  0.47455910
   0.85349370  0.60655876  0.37430854
   0.68598379  0.28484601  0.18645066
   0.08994058  0.36349626  0.37494075
   0.18323281  0.53763236  0.18663650
   0.10480489  0.86928962  0.09026199
   0.09336141  0.10582362  0.09330515
   0.10094173  0.61566885  0.09289357
   0.60026154  0.62114411  0.09154494
   0.68490488  0.03627947  0.46893717
   0.43934145  0.79189565  0.18322776
   0.59867171  0.86099557  0.09246123
   0.94030541  0.79479403  0.18168425
   0.84479998  0.12410408  0.37376530
   0.34198391  0.10284503  0.09261991
   0.85372275  0.87265510  0.09075901
   0.68411550  0.53563381  0.18515124
   0.35126056  0.35512100  0.37125309
   0.76486497  0.69202128  0.27736323
   0.01203877  0.69072010  0.28231387
   0.34423714  0.61643044  0.09322447
   0.18089763  0.53386986  0.46931205
   0.52342066  0.44201199  0.28093589
   0.68394471  0.03319433  0.18674887
   0.35695561  0.12027406  0.37429457
   0.00548837  0.44978972  0.28210068
   0.75457718  0.95051094  0.27859211
   0.59931523  0.12627043  0.37319130
   0.43245325  0.77923103  0.46853441
   0.60783360  0.37297395  0.09214300
   0.59745400  0.35450288  0.37461206
   0.10016938  0.37786397  0.09036060
   0.68956618  0.52313395  0.46885624
   0.52600862  0.95777706  0.28099126
   0.35287306  0.87256896  0.37622361
   0.52526811  0.20498176  0.28446290
   0.85683774  0.37255621  0.08938991
   0.11134490  0.12323934  0.37706021
   0.53046177  0.70709622  0.27799401
   0.93103395  0.03019697  0.18282944
   0.34869190  0.85902618  0.09296816
   0.93665933  0.53453567  0.47124172
   0.10195689  0.61743565  0.37607359
   0.27604583  0.20394949  0.28516625
   0.68488261  0.28747471  0.46623960
   0.76837453  0.45128076  0.27976268
   0.75873598  0.19392712  0.28433427
   0.18202101  0.02976936  0.18078205
   0.84642609  0.36073712  0.37455150
   0.43707433  0.03269925  0.18615941
   0.84767677  0.10608478  0.09176970
Direct configuration=     7
   0.60303100  0.11499200  0.09483464
   0.42873904  0.54205846  0.18593522
   0.18540961  0.77248090  0.47407317
   0.18510612  0.28741276  0.47307624
   0.92862044  0.03575929  0.47448321
   0.19355017  0.79171909  0.18478051
   0.18764040  0.03267926  0.47413582
   0.85375756  0.87656173  0.37201087
   0.34925367  0.61827347  0.37690747
   0.93573254  0.54015903  0.18644032
   0.43526661  0.53487864  0.47395917
   0.60050471  0.60825868  0.36991895
   0.68928725  0.78840431  0.18214769
   0.60018200  0.88115937  0.37311852
   0.67900956  0.78380654  0.47608100
   0.27147054  0.70296346  0.28065733
   0.28235859  0.96560917  0.27961747
   0.26927097  0.44325651  0.28189119
   0.93215623  0.28025962  0.18156466
   0.43308841  0.27924842  0.18221344
   0.01280722  0.94557475  0.27490557
   0.34531422  0.36235118  0.08853161
   0.10566987  0.86874380  0.37480254
   0.92986010  0.77138407  0.47839000
   0.17872926  0.27957320  0.18306336
   0.44367575  0.28523129  0.47085573
   0.85208885  0.62234539  0.09020749
   0.00389245  0.19178136  0.28062936
   0.44666743  0.03203165  0.47150510
   0.92418605  0.29201178  0.47481205
   0.85309009  0.60669477  0.37417242
   0.68598379  0.28484601  0.18645066
   0.08990369  0.36324224  0.37482794
   0.18323281  0.53763236  0.18663650
   0.10480489  0.86928962  0.09026199
   0.09336141  0.10582362  0.09330515
   0.10094173  0.61566885  0.09289357
   0.60026154  0.62114411  0.09154494
   0.68490139  0.03621221  0.46885518
   0.43934145  0.79189565  0.18322776
   0.59867171  0.86099557  0.09246123
   0.94030541  0.79479403  0.18168425
   0.84442886  0.12438763  0.37368181
   0.34198391  0.10284503  0.09261991
   0.85372275  0.87265510  0.09075901
   0.68411550  0.53563381  0.18515124
   0.35149398  0.35438682  0.37115790
   0.76470839  0.69216223  0.27707797
   0.01140903  0.69109425  0.28190767
   0.34423714  0.61643044  0.09322447
   0.18069931  0.53367705  0.46936670
   0.52442030  0.44100366  0.28076934
   0.68394471  0.03319433  0.18674887
   0.35742916  0.12124045  0.37431466
   0.00440452  0.44924537  0.28219380
   0.75417481  0.95040879  0.27837592
   0.59933495  0.12764481  0.37304981
   0.43276983  0.77926452  0.46849875
   0.60783360  0.37297395  0.09214300
   0.59705269  0.35310201  0.37419918
   0.10016938  0.37786397  0.09036060
   0.69015672  0.52319848  0.46878793
   0.52702419  0.95899140  0.28082753
   0.35395716  0.87420297  0.37623029
   0.52624118  0.20628825  0.28469343
   0.85683774  0.37255621  0.08938991
   0.11174619  0.12349854  0.37704639
   0.53122847  0.70749768  0.27780579
   0.93103395  0.03019697  0.18282944
   0.34869190  0.85902618  0.09296816
   0.93692948  0.53449160  0.47122607
   0.10156739  0.61726820  0.37596864
   0.27631840  0.20489205  0.28549830
   0.68522257  0.28739282  0.46576434
   0.76792272  0.45170051  0.27959790
   0.75786290  0.19324193  0.28446632
   0.18202101  0.02976936  0.18078205
   0.84522043  0.35891159  0.37454959
   0.43707433  0.03269925  0.18615941
   0.84767677  0.10608478  0.09176970
Direct configuration=     8
   0.60303100  0.11499200  0.09483464
   0.42873904  0.54205846  0.18593522
   0.18619358  0.77268320  0.47349131
   0.18407865  0.28651613  0.47270899
   0.92993009  0.03622182  0.47396528
   0.19355017  0.79171909  0.18478051
   0.18759958  0.03328571  0.47389967
   0.85402932  0.87609203  0.37200970
   0.34783407  0.61833672  0.37726153
   0.93573254  0.54015903  0.18644032
   0.43509396  0.53418022  0.47415114
   0.60056339  0.60697018  0.36989579
   0.68928725  0.78840431  0.18214769
   0.59966266  0.88096949  0.37274156
   0.67966768  0.78376150  0.47556073
   0.27164388  0.70390275  0.28119016
   0.28248033  0.96613229  0.28007565
   0.26964245  0.44454519  0.28175902
   0.93215623  0.28025962  0.18156466
   0.43308841  0.27924842  0.18221344
   0.01387403  0.94532036  0.27484434
   0.34531422  0.36235118  0.08853161
   0.10677216  0.86869282  0.37447670
   0.92961515  0.77228701  0.47837971
   0.17872926  0.27957320  0.18306336
   0.44324883  0.28491660  0.47067498
   0.85208885  0.62234539  0.09020749
   0.00458245  0.19264351  0.28024825
   0.44543921  0.03177478  0.47174299
   0.92530878  0.29129871  0.47520497
   0.85191837  0.60570909  0.37391801
   0.68598379  0.28484601  0.18645066
   0.09039879  0.36331894  0.37534649
   0.18323281  0.53763236  0.18663650
   0.10480489  0.86928962  0.09026199
   0.09336141  0.10582362  0.09330515
   0.10094173  0.61566885  0.09289357
   0.60026154  0.62114411  0.09154494
   0.68517357  0.03614225  0.46850703
   0.43934145  0.79189565  0.18322776
   0.59867171  0.86099557  0.09246123
   0.94030541  0.79479403  0.18168425
   0.84377506  0.12309603  0.37372024
   0.34198391  0.10284503  0.09261991
   0.85372275  0.87265510  0.09075901
   0.68411550  0.53563381  0.18515124
   0.35296948  0.35576321  0.37178835
   0.76451789  0.69259185  0.27671096
   0.01149396  0.69239754  0.28121133
   0.34423714  0.61643044  0.09322447
   0.18059053  0.53360211  0.46929124
   0.52572247  0.44005846  0.28048881
   0.68394471  0.03319433  0.18674887
   0.35690957  0.12130082  0.37410891
   0.00228334  0.44819557  0.28241126
   0.75493326  0.95010948  0.27801004
   0.59907286  0.12702154  0.37304164
   0.43246665  0.77994170  0.46845289
   0.60783360  0.37297395  0.09214300
   0.59611497  0.35382562  0.37340166
   0.10016938  0.37786397  0.09036060
   0.69079540  0.52315396  0.46838400
   0.52735690  0.96065879  0.28015625
   0.35564973  0.87613936  0.37624967
   0.52637693  0.20733435  0.28471876
   0.85683774  0.37255621  0.08938991
   0.11150045  0.12288444  0.37703431
   0.53068675  0.70726798  0.27786295
   0.93103395  0.03019697  0.18282944
   0.34869190  0.85902618  0.09296816
   0.93743617  0.53526904  0.47105679
   0.10161090  0.61707969  0.37562454
   0.27593732  0.20406009  0.28560738
   0.68461405  0.28696339  0.46501793
   0.76783806  0.45291443  0.27916964
   0.75668884  0.19301512  0.28399551
   0.18202101  0.02976936  0.18078205
   0.84416507  0.35790691  0.37445678
   0.43707433  0.03269925  0.18615941
   0.84767677  0.10608478  0.09176970
Direct configuration=     9
   0.60303100  0.11499200  0.09483464
   0.42873904  0.54205846  0.18593522
   0.18672564  0.77282049  0.47309642
   0.18338133  0.28590761  0.47245974
   0.93081892  0.03653572  0.47361377
   0.19355017  0.79171909  0.18478051
   0.18757188  0.03369728  0.47373940
   0.85421375  0.87577326  0.37200890
   0.34687063  0.61837966  0.37750182
   0.93573254  0.54015903  0.18644032
   0.43497678  0.53370623  0.47428144
   0.60060322  0.60609571  0.36988007
   0.68928725  0.78840431  0.18214769
   0.59931020  0.88084062  0.37248573
   0.68011432  0.78373094  0.47520764
   0.27176152  0.70454022  0.28155178
   0.28256296  0.96648732  0.28038660
   0.26989456  0.44541977  0.28166931
   0.93215623  0.28025962  0.18156466
   0.43308841  0.27924842  0.18221344
   0.01459805  0.94514772  0.27480278
   0.34531422  0.36235118  0.08853161
   0.10752025  0.86865823  0.37425556
   0.92944890  0.77289982  0.47837273
   0.17872926  0.27957320  0.18306336
   0.44295909  0.28470302  0.47055230
   0.85208885  0.62234539  0.09020749
   0.00505074  0.19322863  0.27998960
   0.44460565  0.03160045  0.47190443
   0.92607076  0.29081477  0.47547163
   0.85112316  0.60504014  0.37374534
   0.68598379  0.28484601  0.18645066
   0.09073481  0.36337100  0.37569841
   0.18323281  0.53763236  0.18663650
   0.10480489  0.86928962  0.09026199
   0.09336141  0.10582362  0.09330515
   0.10094173  0.61566885  0.09289357
   0.60026154  0.62114411  0.09154494
   0.68535829  0.03609477  0.46827074
   0.43934145  0.79189565  0.18322776
   0.59867171  0.86099557  0.09246123
   0.94030541  0.79479403  0.18168425
   0.84333135  0.12221946  0.37374632
   0.34198391  0.10284503  0.09261991
   0.85372275  0.87265510  0.09075901
   0.68411550  0.53563381  0.18515124
   0.35397086  0.35669734  0.37221623
   0.76438860  0.69288343  0.27646188
   0.01155161  0.69328204  0.28073875
   0.34423714  0.61643044  0.09322447
   0.18051671  0.53355126  0.46924003
   0.52660622  0.43941697  0.28029842
   0.68394471  0.03319433  0.18674887
   0.35655693  0.12134179  0.37396928
   0.00084374  0.44748309  0.28255885
   0.75544800  0.94990635  0.27776172
   0.59889499  0.12659855  0.37303609
   0.43226089  0.78040128  0.46842176
   0.60783360  0.37297395  0.09214300
   0.59547856  0.35431672  0.37286040
   0.10016938  0.37786397  0.09036060
   0.69122885  0.52312374  0.46810986
   0.52758270  0.96179040  0.27970067
   0.35679844  0.87745354  0.37626283
   0.52646906  0.20804431  0.28473595
   0.85683774  0.37255621  0.08938991
   0.11133367  0.12246767  0.37702611
   0.53031910  0.70711208  0.27790175
   0.93103395  0.03019697  0.18282944
   0.34869190  0.85902618  0.09296816
   0.93778005  0.53579667  0.47094190
   0.10164043  0.61695175  0.37539101
   0.27567869  0.20349547  0.28568142
   0.68420107  0.28667195  0.46451136
   0.76778061  0.45373829  0.27887899
   0.75589204  0.19286120  0.28367599
   0.18202101  0.02976936  0.18078205
   0.84344882  0.35722505  0.37439379
   0.43707433  0.03269925  0.18615941
   0.84767677  0.10608478  0.09176970
Direct configuration=    10
   0.60303100  0.11499200  0.09483464
   0.42873904  0.54205846  0.18593522
   0.18651008  0.77323090  0.47248312
   0.18438971  0.28670620  0.47234742
   0.93035537  0.03561335  0.47306657
   0.19355017  0.79171909  0.18478051
   0.18739027  0.03318735  0.47345369
   0.85392965  0.87499749  0.37161057
   0.34761952  0.61893843  0.37784109
   0.93573254  0.54015903  0.18644032
   0.43504428  0.53406398  0.47427807
   0.59906346  0.60613108  0.36962294
   0.68928725  0.78840431  0.18214769
   0.59950118  0.87987719  0.37183824
   0.67976899  0.78317404  0.47450719
   0.27157444  0.70512682  0.28159084
   0.28358442  0.96760273  0.28043966
   0.27051861  0.44607644  0.28181643
   0.93215623  0.28025962  0.18156466
   0.43308841  0.27924842  0.18221344
   0.01497930  0.94611105  0.27499099
   0.34531422  0.36235118  0.08853161
   0.10748583  0.86777225  0.37409061
   0.93065173  0.77386219  0.47812291
   0.17872926  0.27957320  0.18306336
   0.44318731  0.28462687  0.47025970
   0.85208885  0.62234539  0.09020749
   0.00558429  0.19365893  0.28009907
   0.44436426  0.03197360  0.47217558
   0.92633620  0.29103284  0.47577278
   0.85207014  0.60461081  0.37332180
   0.68598379  0.28484601  0.18645066
   0.09001971  0.36269545  0.37570068
   0.18323281  0.53763236  0.18663650
   0.10480489  0.86928962  0.09026199
   0.09336141  0.10582362  0.09330515
   0.10094173  0.61566885  0.09289357
   0.60026154  0.62114411  0.09154494
   0.68525275  0.03601719  0.46782808
   0.43934145  0.79189565  0.18322776
   0.59867171  0.86099557  0.09246123
   0.94030541  0.79479403  0.18168425
   0.84335350  0.12119171  0.37352772
   0.34198391  0.10284503  0.09261991
   0.85372275  0.87265510  0.09075901
   0.68411550  0.53563381  0.18515124
   0.35428396  0.35807452  0.37256320
   0.76431623  0.69357086  0.27625621
   0.01175135  0.69401997  0.28029119
   0.34423714  0.61643044  0.09322447
   0.18035234  0.53329976  0.46925229
   0.52675714  0.43938057  0.27991935
   0.68394471  0.03319433  0.18674887
   0.35626195  0.12175149  0.37378750
  -0.00080221  0.44680548  0.28288034
   0.75657403  0.94981640  0.27761785